 Entering Gaussian System
 *********************************************
 Gaussian 98:
 frequency output generated by the xtb code
 *********************************************
                         Standard orientation:
 --------------------------------------------------------------------
  Center     Atomic     Atomic              Coordinates (Angstroms)
  Number     Number      Type              X           Y           Z
 --------------------------------------------------------------------
    1          6             0       -2.412051   -0.102377    0.000027
    2          6             0       -1.829076   -1.357483    0.000013
    3          6             0       -0.449271   -1.475457   -0.000005
    4          6             0        0.334593   -0.337736   -0.000007
    5          6             0       -0.236805    0.935925    0.000007
    6          6             0       -1.624498    1.034502    0.000025
    7          8             0        0.576504    2.018083    0.000004
    8         17             0        2.071418   -0.474060   -0.000030
    9          1             0       -3.485820   -0.003635    0.000041
   10          1             0       -2.440415   -2.244839    0.000015
   11          1             0        0.025639   -2.442739   -0.000017
   12          1             0       -2.083932    2.011406    0.000037
   13          1             0        0.055551    2.836541    0.000015
 --------------------------------------------------------------------
     1 basis functions        1 primitive gaussians
     1 alpha electrons        1 beta electrons
 
 Harmonic frequencies (cm**-1), IR intensities (km*mol⁻¹),
 Raman scattering activities (A**4/amu), Raman depolarization ratios,
 reduced masses (AMU), force constants (mDyne/A) and normal coordinates:
                      1                      2                      3
                        a                      a                      a 
 Frequencies --   144.4003               205.3673               249.8594
 Red. masses --    15.4346                22.4160                11.5722
 Frc consts  --     0.0000                 0.0000                 0.0000
 IR Inten    --     0.3280                 1.4028                 0.5345
 Raman Activ --     0.0000                 0.0000                 0.0000
 Depolar     --     0.0000                 0.0000                 0.0000
 Atom AN      X      Y      Z        X      Y      Z        X      Y      Z
   1   6     0.00  -0.00   0.36    -0.02   0.06   0.00    -0.00   0.00  -0.22
   2   6    -0.00   0.00  -0.19    -0.12   0.00   0.00    -0.00   0.00  -0.37
   3   6    -0.00   0.00  -0.41    -0.12  -0.18   0.00     0.00  -0.00   0.26
   4   6    -0.00   0.00  -0.19    -0.09  -0.21  -0.00     0.00  -0.00   0.45
   5   6    -0.00   0.00  -0.09     0.02  -0.18  -0.00     0.00  -0.00   0.31
   6   6     0.00  -0.00   0.34     0.05   0.02  -0.00     0.00  -0.00   0.37
   7   8    -0.00   0.00  -0.46     0.39  -0.49  -0.00    -0.00   0.00  -0.36
   8  17     0.00  -0.00   0.41    -0.11   0.62   0.00    -0.00   0.00  -0.17
   9   1     0.00  -0.00   0.21    -0.00   0.04   0.00    -0.00   0.00  -0.17
  10   1    -0.00   0.00  -0.10    -0.07   0.02   0.00    -0.00   0.00  -0.26
  11   1    -0.00   0.00  -0.19    -0.07  -0.07   0.00     0.00  -0.00   0.08
  12   1     0.00  -0.00   0.18     0.04   0.02  -0.00     0.00  -0.00   0.13
  13   1    -0.00   0.00  -0.08     0.17  -0.07  -0.00    -0.00   0.00  -0.15
                      4                      5                      6
                        a                      a                      a 
 Frequencies --   349.6680               386.4317               426.2928
 Red. masses --    22.4063                 3.7992                 8.2179
 Frc consts  --     0.0000                 0.0000                 0.0000
 IR Inten    --     1.6453               151.2863                37.7121
 Raman Activ --     0.0000                 0.0000                 0.0000
 Depolar     --     0.0000                 0.0000                 0.0000
 Atom AN      X      Y      Z        X      Y      Z        X      Y      Z
   1   6    -0.26   0.18   0.00    -0.00   0.00  -0.16    -0.00   0.00  -0.18
   2   6    -0.24   0.19   0.00    -0.00   0.00  -0.03     0.00   0.00  -0.07
   3   6    -0.21   0.00   0.00     0.00  -0.00   0.22     0.00  -0.00   0.31
   4   6     0.12  -0.18  -0.00    -0.00   0.00  -0.24    -0.00   0.00  -0.51
   5   6    -0.03  -0.23  -0.00    -0.00   0.00  -0.15    -0.00   0.00  -0.26
   6   6    -0.03  -0.02  -0.00     0.00  -0.00   0.19     0.00  -0.00   0.33
   7   8    -0.35  -0.06   0.00    -0.00   0.00  -0.20     0.00  -0.00   0.23
   8  17     0.67   0.06  -0.00     0.00   0.00   0.04    -0.00  -0.00   0.06
   9   1    -0.07   0.08   0.00    -0.00   0.00  -0.07    -0.00   0.00  -0.05
  10   1    -0.08   0.06   0.00    -0.00  -0.00   0.02     0.00   0.00   0.02
  11   1    -0.14  -0.04   0.00     0.00  -0.00   0.19     0.00  -0.00   0.27
  12   1     0.07   0.03  -0.00     0.00  -0.00   0.16     0.00  -0.00   0.29
  13   1    -0.16  -0.06  -0.00     0.00  -0.00   0.84    -0.00   0.00  -0.46
                      7                      8                      9
                        a                      a                      a 
 Frequencies --   467.7051               512.5167               532.6793
 Red. masses --    13.9147                10.2966                13.0007
 Frc consts  --     0.0000                 0.0000                 0.0000
 IR Inten    --    15.4088                 0.0397                 2.7721
 Raman Activ --     0.0000                 0.0000                 0.0000
 Depolar     --     0.0000                 0.0000                 0.0000
 Atom AN      X      Y      Z        X      Y      Z        X      Y      Z
   1   6     0.25   0.10  -0.00    -0.00   0.00  -0.42    -0.16  -0.24  -0.00
   2   6    -0.08  -0.05   0.00     0.00  -0.00   0.46    -0.40  -0.32   0.00
   3   6    -0.11  -0.26  -0.00    -0.00   0.00  -0.27    -0.33   0.17   0.00
   4   6     0.01  -0.27  -0.00    -0.00   0.00  -0.26    -0.08   0.09   0.00
   5   6     0.34  -0.13  -0.00     0.00  -0.00   0.48     0.19   0.21  -0.00
   6   6     0.42  -0.07  -0.00     0.00  -0.00   0.19     0.10  -0.33  -0.00
   7   8    -0.25   0.38   0.00    -0.00   0.00  -0.18     0.33   0.30  -0.00
   8  17    -0.29   0.14   0.00     0.00  -0.00   0.06     0.19   0.05  -0.00
   9   1     0.08   0.11  -0.00    -0.00   0.00  -0.30    -0.04   0.04   0.00
  10   1    -0.09   0.03   0.00     0.00  -0.00   0.23    -0.07  -0.12   0.00
  11   1    -0.05  -0.09  -0.00    -0.00   0.00  -0.17    -0.05   0.07   0.00
  12   1     0.16  -0.00  -0.00    -0.00   0.00   0.00    -0.03  -0.12  -0.00
  13   1    -0.25  -0.02   0.00    -0.00   0.00  -0.06     0.10   0.09  -0.00
                     10                     11                     12
                        a                      a                      a 
 Frequencies --   659.0483               662.7174               777.8606
 Red. masses --    11.5376                13.7294                 3.3061
 Frc consts  --     0.0000                 0.0000                 0.0000
 IR Inten    --     3.1581                14.2872                48.3952
 Raman Activ --     0.0000                 0.0000                 0.0000
 Depolar     --     0.0000                 0.0000                 0.0000
 Atom AN      X      Y      Z        X      Y      Z        X      Y      Z
   1   6    -0.00   0.00  -0.29    -0.34  -0.01   0.00     0.00  -0.00   0.18
   2   6     0.00  -0.00   0.27     0.07   0.23   0.00     0.00  -0.00   0.18
   3   6    -0.00  -0.00  -0.29     0.08   0.44  -0.00     0.00  -0.00   0.17
   4   6     0.00  -0.00   0.49     0.41   0.09  -0.00    -0.00   0.00  -0.12
   5   6    -0.00   0.00  -0.60     0.16  -0.21  -0.00    -0.00   0.00  -0.21
   6   6     0.00   0.00   0.30     0.18  -0.39  -0.00     0.00  -0.00   0.21
   7   8     0.00   0.00   0.10    -0.04  -0.16   0.00     0.00   0.00   0.05
   8  17     0.00  -0.00  -0.02    -0.32   0.03   0.00     0.00  -0.00   0.02
   9   1     0.00  -0.00  -0.04    -0.09   0.04   0.00    -0.00   0.00  -0.46
  10   1    -0.00  -0.00   0.10     0.14  -0.02  -0.00    -0.00   0.00  -0.52
  11   1    -0.00  -0.00  -0.07    -0.03   0.10   0.00    -0.00   0.00  -0.36
  12   1     0.00  -0.00   0.17     0.14  -0.07  -0.00    -0.00   0.00  -0.42
  13   1     0.00   0.00   0.00    -0.05  -0.06   0.00     0.00   0.00   0.02
                     13                     14                     15
                        a                      a                      a 
 Frequencies --   818.7496               862.8067               903.8452
 Red. masses --    12.1224                 3.3521                 3.8515
 Frc consts  --     0.0000                 0.0000                 0.0000
 IR Inten    --    44.1799                 0.5194                 0.5776
 Raman Activ --     0.0000                 0.0000                 0.0000
 Depolar     --     0.0000                 0.0000                 0.0000
 Atom AN      X      Y      Z        X      Y      Z        X      Y      Z
   1   6     0.49  -0.01  -0.00     0.00  -0.00   0.08    -0.00   0.00  -0.23
   2   6    -0.18  -0.27   0.00    -0.00   0.00  -0.22    -0.00   0.00  -0.21
   3   6    -0.18   0.41   0.00    -0.00   0.00  -0.20     0.00  -0.00   0.35
   4   6    -0.04   0.23   0.00     0.00   0.00   0.01    -0.00   0.00  -0.03
   5   6    -0.03  -0.00   0.00    -0.00  -0.00  -0.03    -0.00   0.00  -0.05
   6   6     0.19   0.10  -0.00     0.00  -0.00   0.34     0.00  -0.00   0.18
   7   8    -0.29  -0.42   0.00    -0.00  -0.00   0.02    -0.00  -0.00   0.01
   8  17     0.03  -0.00  -0.00    -0.00   0.00  -0.00     0.00  -0.00   0.01
   9   1     0.15   0.11  -0.00    -0.00   0.00  -0.09     0.00  -0.00   0.38
  10   1    -0.06  -0.06  -0.00     0.00  -0.00   0.35     0.00  -0.00   0.37
  11   1     0.07   0.17  -0.00     0.00  -0.00   0.45    -0.00   0.00  -0.63
  12   1     0.02   0.01   0.00    -0.00   0.00  -0.67    -0.00   0.00  -0.25
  13   1    -0.06  -0.09   0.00     0.00   0.00  -0.00     0.00   0.00   0.01
                     16                     17                     18
                        a                      a                      a 
 Frequencies --   916.6248              1013.6720              1085.8553
 Red. masses --     3.2228                11.6574                 5.7951
 Frc consts  --     0.0000                 0.0000                 0.0000
 IR Inten    --     0.0085                53.0422                30.5178
 Raman Activ --     0.0000                 0.0000                 0.0000
 Depolar     --     0.0000                 0.0000                 0.0000
 Atom AN      X      Y      Z        X      Y      Z        X      Y      Z
   1   6     0.00  -0.00   0.33     0.11  -0.07  -0.00     0.36  -0.14  -0.00
   2   6    -0.00   0.00  -0.26    -0.16  -0.25   0.00     0.11   0.36   0.00
   3   6     0.00  -0.00   0.07    -0.10   0.15   0.00    -0.18   0.09   0.00
   4   6     0.00  -0.00   0.06     0.63  -0.20  -0.00     0.06  -0.08  -0.00
   5   6    -0.00   0.00  -0.08    -0.06  -0.20  -0.00    -0.10   0.09   0.00
   6   6    -0.00   0.00  -0.10    -0.28   0.39   0.00     0.00  -0.27  -0.00
   7   8     0.00   0.00   0.00     0.14   0.18  -0.00    -0.08   0.00   0.00
   8  17     0.00  -0.00   0.00    -0.12   0.02   0.00    -0.00   0.00   0.00
   9   1    -0.00   0.00  -0.64     0.01  -0.13   0.00     0.10  -0.14  -0.00
  10   1     0.00  -0.00   0.52    -0.01  -0.09  -0.00    -0.10   0.20   0.00
  11   1    -0.00   0.00  -0.21    -0.17  -0.04   0.00    -0.47  -0.18   0.00
  12   1     0.00  -0.00   0.27    -0.13   0.08   0.00    -0.32  -0.24   0.00
  13   1    -0.00  -0.00  -0.00    -0.03  -0.00   0.00     0.22   0.15  -0.00
                     19                     20                     21
                        a                      a                      a 
 Frequencies --  1099.6736              1154.6415              1173.0951
 Red. masses --     4.4999                 3.2545                 1.3966
 Frc consts  --     0.0000                 0.0000                 0.0000
 IR Inten    --   254.4652                 2.0737                 0.8416
 Raman Activ --     0.0000                 0.0000                 0.0000
 Depolar     --     0.0000                 0.0000                 0.0000
 Atom AN      X      Y      Z        X      Y      Z        X      Y      Z
   1   6     0.06  -0.04  -0.00    -0.02  -0.09  -0.00    -0.03   0.09   0.00
   2   6     0.15   0.13  -0.00     0.15  -0.01  -0.00     0.04  -0.06  -0.00
   3   6    -0.17   0.14   0.00    -0.20   0.13   0.00     0.06  -0.05  -0.00
   4   6    -0.25   0.04   0.00    -0.23  -0.10   0.00    -0.01  -0.05  -0.00
   5   6     0.16  -0.10  -0.00     0.04  -0.02  -0.00    -0.04   0.09   0.00
   6   6    -0.11   0.03   0.00     0.10   0.16  -0.00     0.01   0.03  -0.00
   7   8     0.28   0.01  -0.00    -0.10   0.02   0.00     0.00  -0.03  -0.00
   8  17     0.04   0.00  -0.00     0.03   0.01  -0.00    -0.00  -0.00  -0.00
   9   1    -0.00  -0.26  -0.00    -0.03  -0.36  -0.00     0.05   0.65   0.00
  10   1     0.11  -0.01  -0.00     0.48  -0.30  -0.00     0.48  -0.34  -0.00
  11   1    -0.08   0.03   0.00    -0.31  -0.08   0.00    -0.25  -0.14   0.00
  12   1    -0.21  -0.08   0.00     0.40   0.22  -0.00    -0.31  -0.14   0.00
  13   1    -0.63  -0.43   0.00     0.19   0.14  -0.00    -0.06  -0.05   0.00
                     22                     23                     24
                        a                      a                      a 
 Frequencies --  1242.4895              1264.8636              1325.2886
 Red. masses --     5.5978                 8.1150                11.5746
 Frc consts  --     0.0000                 0.0000                 0.0000
 IR Inten    --     3.9701               280.3114                34.3224
 Raman Activ --     0.0000                 0.0000                 0.0000
 Depolar     --     0.0000                 0.0000                 0.0000
 Atom AN      X      Y      Z        X      Y      Z        X      Y      Z
   1   6     0.12   0.07  -0.00     0.20  -0.07  -0.00     0.02   0.40   0.00
   2   6     0.01   0.19   0.00     0.16  -0.01  -0.00     0.32  -0.23  -0.00
   3   6    -0.17   0.17   0.00    -0.05   0.13   0.00    -0.35  -0.18   0.00
   4   6    -0.15  -0.36  -0.00    -0.12   0.07   0.00     0.06   0.37   0.00
   5   6    -0.05  -0.33  -0.00    -0.40  -0.36   0.00     0.38  -0.22  -0.00
   6   6    -0.02  -0.03  -0.00    -0.20  -0.21   0.00    -0.34  -0.14   0.00
   7   8     0.01   0.18   0.00     0.24   0.25  -0.00    -0.08  -0.02   0.00
   8  17     0.02   0.01  -0.00     0.03  -0.01  -0.00    -0.01   0.01   0.00
   9   1     0.03  -0.00  -0.00     0.10   0.38   0.00    -0.01   0.00  -0.00
  10   1     0.23  -0.10  -0.00    -0.10   0.10   0.00    -0.00  -0.00  -0.00
  11   1     0.52   0.33  -0.00    -0.11  -0.00   0.00    -0.01  -0.01   0.00
  12   1    -0.27  -0.14   0.00     0.42   0.16  -0.00    -0.06  -0.02   0.00
  13   1     0.21   0.17  -0.00    -0.06  -0.02   0.00     0.16   0.11  -0.00
                     25                     26                     27
                        a                      a                      a 
 Frequencies --  1425.8586              1462.3408              1571.3437
 Red. masses --     9.3444                 9.7344                11.4948
 Frc consts  --     0.0000                 0.0000                 0.0000
 IR Inten    --    29.1313               140.2147                15.2202
 Raman Activ --     0.0000                 0.0000                 0.0000
 Depolar     --     0.0000                 0.0000                 0.0000
 Atom AN      X      Y      Z        X      Y      Z        X      Y      Z
   1   6     0.22   0.30  -0.00    -0.10   0.27   0.00     0.23  -0.15  -0.00
   2   6    -0.32   0.15   0.00    -0.13  -0.22   0.00    -0.47   0.27   0.00
   3   6    -0.08  -0.33  -0.00     0.38   0.13  -0.00     0.38  -0.00  -0.00
   4   6     0.25   0.26  -0.00    -0.24   0.22   0.00    -0.14   0.12   0.00
   5   6    -0.38   0.07   0.00    -0.14  -0.48  -0.00     0.43  -0.16  -0.00
   6   6     0.07  -0.28  -0.00     0.30   0.07  -0.00    -0.43  -0.06   0.00
   7   8     0.11   0.02  -0.00     0.05   0.14   0.00    -0.05  -0.01   0.00
   8  17    -0.01  -0.01   0.00     0.02  -0.01  -0.00    -0.01  -0.00   0.00
   9   1     0.04  -0.27  -0.00    -0.06  -0.20  -0.00     0.07   0.03  -0.00
  10   1     0.28  -0.22  -0.00    -0.09  -0.03   0.00     0.10  -0.08  -0.00
  11   1     0.13  -0.02  -0.00    -0.23  -0.13   0.00    -0.04  -0.07   0.00
  12   1     0.10  -0.05  -0.00    -0.24  -0.14   0.00     0.09   0.08  -0.00
  13   1    -0.10  -0.07   0.00     0.09   0.07  -0.00     0.06   0.04  -0.00
                     28                     29                     30
                        a                      a                      a 
 Frequencies --  1591.2330              3086.4739              3101.2090
 Red. masses --    11.6225                 1.8035                 1.8018
 Frc consts  --     0.0000                 0.0000                 0.0000
 IR Inten    --    48.5123                28.1604                19.7233
 Raman Activ --     0.0000                 0.0000                 0.0000
 Depolar     --     0.0000                 0.0000                 0.0000
 Atom AN      X      Y      Z        X      Y      Z        X      Y      Z
   1   6    -0.09  -0.52  -0.00    -0.08   0.01   0.00     0.19  -0.02  -0.00
   2   6    -0.01   0.25   0.00     0.00   0.01   0.00    -0.09  -0.13   0.00
   3   6    -0.26  -0.28   0.00     0.00   0.00  -0.00    -0.02   0.05   0.00
   4   6     0.08   0.47   0.00    -0.00   0.00   0.00    -0.00   0.00   0.00
   5   6    -0.00  -0.31  -0.00    -0.00  -0.01  -0.00    -0.00  -0.00   0.00
   6   6     0.26   0.31  -0.00     0.11  -0.23  -0.00     0.04  -0.07  -0.00
   7   8    -0.01   0.03   0.00     0.00   0.00   0.00     0.00   0.00  -0.00
   8  17     0.00  -0.00  -0.00     0.00  -0.00  -0.00     0.00  -0.00  -0.00
   9   1    -0.00   0.12   0.00     0.31  -0.03  -0.00    -0.69   0.06   0.00
  10   1     0.06   0.03  -0.00    -0.02  -0.03   0.00     0.33   0.48  -0.00
  11   1     0.08  -0.00  -0.00    -0.00   0.00   0.00     0.09  -0.18  -0.00
  12   1    -0.10   0.00   0.00    -0.39   0.82   0.00    -0.11   0.23   0.00
  13   1     0.05   0.03  -0.00     0.00   0.00   0.00    -0.00   0.00   0.00
                     31                     32                     33
                        a                      a                      a 
 Frequencies --  3108.1315              3117.9245              3435.1435
 Red. masses --     1.8431                 1.9137                 1.8652
 Frc consts  --     0.0000                 0.0000                 0.0000
 IR Inten    --    58.2919                26.6792               172.5163
 Raman Activ --     0.0000                 0.0000                 0.0000
 Depolar     --     0.0000                 0.0000                 0.0000
 Atom AN      X      Y      Z        X      Y      Z        X      Y      Z
   1   6     0.15  -0.01  -0.00    -0.10   0.01   0.00    -0.00  -0.00   0.00
   2   6     0.07   0.10  -0.00    -0.11  -0.16   0.00    -0.00   0.00   0.00
   3   6     0.08  -0.17  -0.00     0.08  -0.17  -0.00     0.00  -0.00  -0.00
   4   6     0.01  -0.00  -0.00     0.01   0.00  -0.00     0.00   0.00  -0.00
   5   6    -0.00   0.00   0.00     0.00   0.00   0.00    -0.00  -0.01  -0.00
   6   6     0.02  -0.04  -0.00    -0.01   0.03   0.00     0.00   0.00   0.00
   7   8     0.00  -0.00  -0.00    -0.00  -0.00   0.00     0.13  -0.20  -0.00
   8  17    -0.00   0.00   0.00    -0.00  -0.00   0.00    -0.00   0.00   0.00
   9   1    -0.50   0.04   0.00     0.31  -0.03  -0.00     0.00   0.00  -0.00
  10   1    -0.24  -0.35   0.00     0.36   0.52  -0.00    -0.00   0.00  -0.00
  11   1    -0.30   0.62   0.00    -0.28   0.58   0.00    -0.00   0.00   0.00
  12   1    -0.07   0.14   0.00     0.04  -0.08  -0.00    -0.00  -0.00   0.00
  13   1     0.00   0.00   0.00     0.00  -0.00  -0.00    -0.51   0.83   0.00
