      -----------------------------------------------------------      
     |                   =====================                   |     
     |                           x T B                           |     
     |                   =====================                   |     
     |                         S. Grimme                         |     
     |          Mulliken Center for Theoretical Chemistry        |     
     |                    University of Bonn                     |     
      -----------------------------------------------------------      

   * xtb version 6.7.1 (edcfbbe) compiled by 'albert@albert-system' on 2024-07-22

   xtb is free software: you can redistribute it and/or modify it under
   the terms of the GNU Lesser General Public License as published by
   the Free Software Foundation, either version 3 of the License, or
   (at your option) any later version.
   
   xtb is distributed in the hope that it will be useful,
   but WITHOUT ANY WARRANTY; without even the implied warranty of
   MERCHANTABILITY or FITNESS FOR A PARTICULAR PURPOSE.  See the
   GNU Lesser General Public License for more details.
   
   Cite this work as:
   * C. Bannwarth, E. Caldeweyher, S. Ehlert, A. Hansen, P. Pracht,
     J. Seibert, S. Spicher, S. Grimme, WIREs Comput. Mol. Sci., 2020, 11,
     e01493. DOI: 10.1002/wcms.1493
   
   for GFN2-xTB:
   * C. Bannwarth, S. Ehlert and S. Grimme., J. Chem. Theory Comput., 2019,
     15, 1652-1671. DOI: 10.1021/acs.jctc.8b01176
   for GFN1-xTB:
   * S. Grimme, C. Bannwarth, P. Shushkov, J. Chem. Theory Comput., 2017,
     13, 1989-2009. DOI: 10.1021/acs.jctc.7b00118
   for GFN0-xTB:
   * P. Pracht, E. Caldeweyher, S. Ehlert, S. Grimme, ChemRxiv, 2019, preprint.
     DOI: 10.26434/chemrxiv.8326202.v1
   for GFN-FF:
   * S. Spicher and S. Grimme, Angew. Chem. Int. Ed., 2020, 59, 15665-15673.
     DOI: 10.1002/anie.202004239
   
   for ALPB and GBSA implicit solvation:
   * S. Ehlert, M. Stahn, S. Spicher, S. Grimme, J. Chem. Theory Comput.,
     2021, 17, 4250-4261. DOI: 10.1021/acs.jctc.1c00471
   
   for ddCOSMO and CPCM-X implicit solvation:
   * M. Stahn, S. Ehlert, S. Grimme, J. Phys. Chem. A,
     2023, XX, XXXX-XXXX. DOI: 10.1021/acs.jpca.3c04382
   
   for DFT-D4:
   * E. Caldeweyher, C. Bannwarth and S. Grimme, J. Chem. Phys., 2017,
     147, 034112. DOI: 10.1063/1.4993215
   * E. Caldeweyher, S. Ehlert, A. Hansen, H. Neugebauer, S. Spicher,
     C. Bannwarth and S. Grimme, J. Chem. Phys., 2019, 150, 154122.
     DOI: 10.1063/1.5090222
   * E. Caldeweyher, J.-M. Mewes, S. Ehlert and S. Grimme, Phys. Chem. Chem. Phys.
     2020, 22, 8499-8512. DOI: 10.1039/D0CP00502A
   
   for sTDA-xTB:
   * S. Grimme and C. Bannwarth, J. Chem. Phys., 2016, 145, 054103.
     DOI: 10.1063/1.4959605
   
   in the mass-spec context:
   * V. Asgeirsson, C. Bauer and S. Grimme, Chem. Sci., 2017, 8, 4879.
     DOI: 10.1039/c7sc00601b
   * J. Koopman and S. Grimme, ACS Omega 2019, 4, 12, 15120-15133.
     DOI: 10.1021/acsomega.9b02011
   
   for metadynamics refer to:
   * S. Grimme, J. Chem. Theory Comput., 2019, 155, 2847-2862
     DOI: 10.1021/acs.jctc.9b00143
   
   for SPH calculations refer to:
   * S. Spicher and S. Grimme, J. Chem. Theory Comput., 2021, 17, 1701-1714
     DOI: 10.1021/acs.jctc.0c01306
   
   for ONIOM refer to:
   * C. Plett, A. Katbashev, S. Ehlert, S. Grimme, M. Bursch,
     Phys. Chem. Chem. Phys., 2023, 25, 17860-17868. DOI: 10.1039/D3CP02178E
   
   for DIPRO refer to:
   * J. Kohn, N. Gildemeister, S. Grimme, D. Fazzi, A. Hansen,
     J. Chem. Phys., 2023, just accepted.
   
   for PTB refer to:
   * S. Grimme, M. Mueller, A. Hansen, J. Chem. Phys., 2023, 158, 124111.
     DOI: 10.1063/5.0137838
   
   with help from (in alphabetical order)
   P. Atkinson, C. Bannwarth, F. Bohle, G. Brandenburg, E. Caldeweyher
   M. Checinski, S. Dohm, S. Ehlert, S. Ehrlich, I. Gerasimov, C. Hölzer
   A. Katbashev, J. Kohn, J. Koopman, C. Lavigne, S. Lehtola, F. März, M. Müller,
   F. Musil, H. Neugebauer, J. Pisarek, C. Plett, P. Pracht, F. Pultar,
   J. Seibert, P. Shushkov, S. Spicher, M. Stahn, M. Steiner, T. Strunk,
   J. Stückrath, T. Rose, and J. Unsleber
   
 * started run on 2025/04/03 at 13:55:03.673     
   ID    Z sym.   atoms
    1    6 C      1-6
    2    8 O      7
    3   17 Cl     8
    4    1 H      9-13

           -------------------------------------------------
          |                Calculation Setup                |
           -------------------------------------------------

          program call               : /srv/scratch/z5358697/.xtb/bin/xtb xtb_rrho.coord --gfn2 --ohess vtight --chrg 0 --enso --norestart -I rrho-xcontrol-inp --parallel 1 --alpb water
          hostname                   : k147
          coordinate file            : xtb_rrho.coord
          omp threads                :                     1


           -------------------------------------------------
          |                 G F N 2 - x T B                 |
           -------------------------------------------------

        Reference                      10.1021/acs.jctc.8b01176
      * Hamiltonian:
        H0-scaling (s, p, d)           1.850000    2.230000    2.230000
        zeta-weighting                 0.500000
      * Dispersion:
        s8                             2.700000
        a1                             0.520000
        a2                             5.000000
        s9                             5.000000
      * Repulsion:
        kExp                           1.500000    1.000000
        rExp                           1.000000
      * Coulomb:
        alpha                          2.000000
        third order                    shell-resolved
        anisotropic                    true
        a3                             3.000000
        a5                             4.000000
        cn-shift                       1.200000
        cn-exp                         4.000000
        max-rad                        5.000000

      * Solvation model:               ALPB
        Solvent                        water
        Parameter file                 internal GFN2-xTB/ALPB
        Dielectric constant                8.0200E+01
        Reference state                gsolv [1 M gas/solution]
        Free energy shift                  1.0808E-03 Eh       6.7819E-01 kcal/mol
        Temperature                        2.9815E+02 K
        Density                            1.0000E+00 kg/L
        Solvent mass                       1.8000E+01 g/mol
        Interaction kernel             P16
        Born radius scaling (c1)           1.4744E+00
        Born radii integrator          GBOBC
        Born offset                        0.0000E+00 a0       0.0000E+00 AA
        H-bond correction              true
        Ion screening                  false
        Surface tension                    1.0000E-05 Eh       1.5569E+01 dyn/cm
        Grid points                               974 per atom

          ...................................................
          :                      SETUP                      :
          :.................................................:
          :  # basis functions                  43          :
          :  # atomic orbitals                  42          :
          :  # shells                           22          :
          :  # electrons                        42          :
          :  max. iterations                   250          :
          :  Hamiltonian                  GFN2-xTB          :
          :  restarted?                      false          :
          :  GBSA solvation                   true          :
          :  PC potential                    false          :
          :  electronic temp.          300.0000000     K    :
          :  accuracy                    1.0000000          :
          :  -> integral cutoff          0.2500000E+02      :
          :  -> integral neglect         0.1000000E-07      :
          :  -> SCF convergence          0.1000000E-05 Eh   :
          :  -> wf. convergence          0.1000000E-03 e    :
          :  Broyden damping             0.4000000          :
          :  net charge                          0          :
          :  unpaired electrons                  0          :
          ...................................................

 iter      E             dE          RMSdq      gap      omega  full diag
   1    -24.3004345 -0.243004E+02  0.519E+00    4.26       0.0  T
   2    -24.3091718 -0.873736E-02  0.296E+00    4.15       1.0  T
   3    -24.3086111  0.560701E-03  0.562E-01    4.03       1.0  T
   4    -24.3098144 -0.120328E-02  0.232E-01    4.11       1.0  T
   5    -24.3100880 -0.273639E-03  0.965E-02    4.12       1.0  T
   6    -24.3101042 -0.161795E-04  0.729E-02    4.11       1.0  T
   7    -24.3101276 -0.234129E-04  0.443E-02    4.11       1.0  T
   8    -24.3101379 -0.102715E-04  0.233E-02    4.12       1.2  T
   9    -24.3101419 -0.404517E-05  0.823E-03    4.12       3.4  T
  10    -24.3101421 -0.187421E-06  0.452E-03    4.12       6.1  T
  11    -24.3101422 -0.422553E-07  0.134E-03    4.12      20.7  T
  12    -24.3101422 -0.460714E-08  0.765E-04    4.12      36.3  T
  13    -24.3101422 -0.227946E-08  0.445E-04    4.12      62.3  T

   *** convergence criteria satisfied after 13 iterations ***

         #    Occupation            Energy/Eh            Energy/eV
      -------------------------------------------------------------
         1        2.0000           -1.0593597             -28.8266
       ...           ...                  ...                  ...
        15        2.0000           -0.4752578             -12.9324
        16        2.0000           -0.4487747             -12.2118
        17        2.0000           -0.4472611             -12.1706
        18        2.0000           -0.4368377             -11.8870
        19        2.0000           -0.4196318             -11.4188
        20        2.0000           -0.4057003             -11.0397
        21        2.0000           -0.3878958             -10.5552 (HOMO)
        22                         -0.2366086              -6.4384 (LUMO)
        23                         -0.2264146              -6.1611
        24                         -0.1450502              -3.9470
        25                         -0.1064714              -2.8972
        26                          0.0148635               0.4045
       ...                                ...                  ...
        42                          0.6285697              17.1043
      -------------------------------------------------------------
                  HL-Gap            0.1512872 Eh            4.1167 eV
             Fermi-level           -0.3122522 Eh           -8.4968 eV

 SCC (total)                   0 d,  0 h,  0 min,  0.023 sec
 SCC setup                      ...        0 min,  0.001 sec (  2.940%)
 Dispersion                     ...        0 min,  0.000 sec (  0.292%)
 classical contributions        ...        0 min,  0.000 sec (  0.063%)
 integral evaluation            ...        0 min,  0.014 sec ( 60.413%)
 iterations                     ...        0 min,  0.005 sec ( 20.650%)
 molecular gradient             ...        0 min,  0.003 sec ( 14.937%)
 printout                       ...        0 min,  0.000 sec (  0.614%)

         :::::::::::::::::::::::::::::::::::::::::::::::::::::
         ::                     SUMMARY                     ::
         :::::::::::::::::::::::::::::::::::::::::::::::::::::
         :: total energy             -24.012054014934 Eh    ::
         :: total w/o Gsasa/hb       -24.006550073508 Eh    ::
         :: gradient norm              0.018025793119 Eh/a0 ::
         :: HOMO-LUMO gap              4.116733437296 eV    ::
         ::.................................................::
         :: SCC energy               -24.310122126401 Eh    ::
         :: -> isotropic ES            0.035994803222 Eh    ::
         :: -> anisotropic ES         -0.001530289809 Eh    ::
         :: -> anisotropic XC          0.007503438034 Eh    ::
         :: -> dispersion             -0.010902457657 Eh    ::
         :: -> Gsolv                  -0.013744113170 Eh    ::
         ::    -> Gelec               -0.008240171745 Eh    ::
         ::    -> Gsasa               -0.000137903745 Eh    ::
         ::    -> Ghb                 -0.006446797378 Eh    ::
         ::    -> Gshift               0.001080759698 Eh    ::
         :: repulsion energy           0.298068111467 Eh    ::
         :: add. restraining           0.000000000000 Eh    ::
         :: total charge              -0.000000000000 e     ::
         :::::::::::::::::::::::::::::::::::::::::::::::::::::

      ----------------------------------------------------------- 
     |                   =====================                   |
     |                        A N C O P T                        |
     |                   =====================                   |
     |               Approximate Normal Coordinate               |
     |                Rational Function Optimizer                |
      ----------------------------------------------------------- 
      ----------------------------------------------------------- 
     |                   =====================                   |
     |                        A N C O P T                        |
     |                   =====================                   |
     |               Approximate Normal Coordinate               |
     |                Rational Function Optimizer                |
      ----------------------------------------------------------- 

          ...................................................
          :                      SETUP                      :
          :.................................................:
          :   optimization level         verytight          :
          :   max. optcycles                   260          :
          :   ANC micro-cycles                  20          :
          :   degrees of freedom                33          :
          :.................................................:
          :   RF solver                   davidson          :
          :   write xtbopt.log                true          :
          :   linear?                        false          :
          :   energy convergence         0.1000000E-06 Eh   :
          :   grad. convergence          0.2000000E-03 Eh/α :
          :   maxmium RF displ.          1.0000000          :
          :   Hlow (freq-cutoff)         0.1000000E-01      :
          :   Hmax (freq-cutoff)         5.0000000          :
          :   S6 in model hess.         20.0000000          :
          ...................................................

generating ANC from exact Hessian ...
Using Lindh-Hessian (1995)
 Shifting diagonal of input Hessian by   2.238461011036938E-003
 Lowest  eigenvalues of input Hessian
    0.000000    0.000000    0.000000    0.000000    0.000000    0.000000
    0.010000    0.013864    0.020730    0.023624    0.038168    0.041960
    0.052505    0.067665    0.077289    0.092862    0.097794    0.099281
 Highest eigenvalues
    1.437318    1.589106    1.708645    1.857256    1.975861    2.051093
 

........................................................................
.............................. CYCLE    1 ..............................
........................................................................

 iter      E             dE          RMSdq      gap      omega  full diag
   1    -24.3101422 -0.243101E+02  0.195E-04    4.12       0.0  T
   2    -24.3101422 -0.863167E-10  0.139E-04    4.12     199.3  T
   3    -24.3101422 -0.422240E-10  0.967E-05    4.12     286.8  T
     SCC iter.                  ...        0 min,  0.001 sec
     gradient                   ...        0 min,  0.003 sec
 * total energy  :   -24.0120540 Eh     change       -0.7564402E-09 Eh
   gradient norm :     0.0180278 Eh/α   predicted     0.0000000E+00 (-100.00%)
   displ. norm   :     0.0645187 α      lambda       -0.9601130E-03
   maximum displ.:     0.0473651 α      in ANC's #18, #17, #20, ...

........................................................................
.............................. CYCLE    2 ..............................
........................................................................

 iter      E             dE          RMSdq      gap      omega  full diag
   1    -24.3219459 -0.243219E+02  0.104E-01    4.15       0.0  T
   2    -24.3219541 -0.813816E-05  0.614E-02    4.16       1.0  T
   3    -24.3219523  0.172788E-05  0.312E-02    4.16       1.0  T
   4    -24.3219576 -0.527579E-05  0.808E-03    4.16       3.4  T
   5    -24.3219578 -0.160989E-06  0.640E-03    4.16       4.3  T
   6    -24.3219580 -0.207597E-06  0.387E-03    4.16       7.2  T
   7    -24.3219581 -0.106159E-06  0.152E-03    4.16      18.3  T
   8    -24.3219581 -0.841125E-08  0.732E-04    4.16      37.9  T
   9    -24.3219581 -0.198560E-08  0.382E-04    4.16      72.6  T
     SCC iter.                  ...        0 min,  0.003 sec
     gradient                   ...        0 min,  0.003 sec
 * total energy  :   -24.0126472 Eh     change       -0.5931370E-03 Eh
   gradient norm :     0.0081787 Eh/α   predicted    -0.4820536E-03 ( -18.73%)
   displ. norm   :     0.0271465 α      lambda       -0.1219814E-03
   maximum displ.:     0.0169451 α      in ANC's #5, #18, #20, ...

........................................................................
.............................. CYCLE    3 ..............................
........................................................................

 iter      E             dE          RMSdq      gap      omega  full diag
   1    -24.3247346 -0.243247E+02  0.432E-02    4.15       0.0  T
   2    -24.3247384 -0.378944E-05  0.258E-02    4.16       1.1  T
   3    -24.3247391 -0.714558E-06  0.157E-02    4.16       1.8  T
   4    -24.3247398 -0.687017E-06  0.540E-03    4.16       5.1  T
   5    -24.3247399 -0.734453E-07  0.436E-03    4.16       6.4  T
   6    -24.3247399 -0.701620E-07  0.312E-03    4.16       8.9  T
   7    -24.3247400 -0.732701E-07  0.909E-04    4.16      30.5  T
   8    -24.3247400 -0.277537E-08  0.551E-04    4.16      50.3  T
     SCC iter.                  ...        0 min,  0.003 sec
     gradient                   ...        0 min,  0.003 sec
 * total energy  :   -24.0127216 Eh     change       -0.7446019E-04 Eh
   gradient norm :     0.0035825 Eh/α   predicted    -0.6103655E-04 ( -18.03%)
   displ. norm   :     0.0147957 α      lambda       -0.2259076E-04
   maximum displ.:     0.0119932 α      in ANC's #5, #7, #23, ...

........................................................................
.............................. CYCLE    4 ..............................
........................................................................

 iter      E             dE          RMSdq      gap      omega  full diag
   1    -24.3245445 -0.243245E+02  0.156E-02    4.15       0.0  T
   2    -24.3245453 -0.835561E-06  0.983E-03    4.15       2.8  T
   3    -24.3245455 -0.203214E-06  0.631E-03    4.15       4.4  T
   4    -24.3245456 -0.782364E-07  0.259E-03    4.15      10.7  T
   5    -24.3245456 -0.178870E-07  0.204E-03    4.15      13.6  T
   6    -24.3245456 -0.130519E-07  0.156E-03    4.15      17.8  T
   7    -24.3245456 -0.179319E-07  0.471E-04    4.15      58.8  T
   8    -24.3245456 -0.748994E-09  0.280E-04    4.15      99.0  T
     SCC iter.                  ...        0 min,  0.002 sec
     gradient                   ...        0 min,  0.003 sec
 * total energy  :   -24.0127360 Eh     change       -0.1440491E-04 Eh
   gradient norm :     0.0012473 Eh/α   predicted    -0.1129767E-04 ( -21.57%)
   displ. norm   :     0.0116371 α      lambda       -0.4408102E-05
   maximum displ.:     0.0090425 α      in ANC's #5, #7, #17, ...

........................................................................
.............................. CYCLE    5 ..............................
........................................................................

 iter      E             dE          RMSdq      gap      omega  full diag
   1    -24.3238045 -0.243238E+02  0.806E-03    4.15       0.0  T
   2    -24.3238047 -0.141626E-06  0.518E-03    4.15       5.4  T
   3    -24.3238047 -0.232857E-07  0.312E-03    4.15       8.9  T
   4    -24.3238047 -0.250713E-07  0.117E-03    4.15      23.8  T
   5    -24.3238047 -0.327636E-08  0.910E-04    4.15      30.5  T
   6    -24.3238047 -0.245518E-08  0.685E-04    4.15      40.5  T
     SCC iter.                  ...        0 min,  0.002 sec
     gradient                   ...        0 min,  0.003 sec
 * total energy  :   -24.0127384 Eh     change       -0.2364670E-05 Eh
   gradient norm :     0.0006672 Eh/α   predicted    -0.2203492E-05 (  -6.82%)
   displ. norm   :     0.0023916 α      lambda       -0.5063220E-06
   maximum displ.:     0.0016887 α      in ANC's #5, #13, #23, ...

........................................................................
.............................. CYCLE    6 ..............................
........................................................................

 iter      E             dE          RMSdq      gap      omega  full diag
   1    -24.3239517 -0.243240E+02  0.339E-03    4.15       0.0  T
   2    -24.3239518 -0.373403E-07  0.208E-03    4.15      13.3  T
   3    -24.3239518 -0.755887E-08  0.127E-03    4.15      21.8  T
   4    -24.3239518 -0.250033E-08  0.394E-04    4.15      70.5  T
   5    -24.3239518 -0.413163E-09  0.290E-04    4.15      95.7  T
     SCC iter.                  ...        0 min,  0.002 sec
     gradient                   ...        0 min,  0.003 sec
 * total energy  :   -24.0127388 Eh     change       -0.3776837E-06 Eh
   gradient norm :     0.0000876 Eh/α   predicted    -0.2531787E-06 ( -32.97%)
   displ. norm   :     0.0004933 α      lambda       -0.1064179E-07
   maximum displ.:     0.0003645 α      in ANC's #5, #18, #20, ...

........................................................................
.............................. CYCLE    7 ..............................
........................................................................

 iter      E             dE          RMSdq      gap      omega  full diag
   1    -24.3239942 -0.243240E+02  0.519E-04    4.15       0.0  T
   2    -24.3239942 -0.360274E-09  0.340E-04    4.15      81.7  T
   3    -24.3239942 -0.671072E-10  0.195E-04    4.15     142.4  T
     SCC iter.                  ...        0 min,  0.001 sec
     gradient                   ...        0 min,  0.003 sec
 * total energy  :   -24.0127388 Eh     change       -0.1160479E-07 Eh
   gradient norm :     0.0000328 Eh/α   predicted    -0.7402779E-08 ( -36.21%)
   displ. norm   :     0.0001275 α      lambda       -0.2165624E-08
   maximum displ.:     0.0000613 α      in ANC's #17, #11, #5, ...

   *** GEOMETRY OPTIMIZATION CONVERGED AFTER 7 ITERATIONS ***

------------------------------------------------------------------------
 total energy gain   :        -0.0006848 Eh       -0.4297 kcal/mol
 total RMSD          :         0.0269586 a0        0.0143 Å
 total power (kW/mol):        -0.2568327 (step)  -30.1210 (real)
------------------------------------------------------------------------

 ANCopt (total)                0 d,  0 h,  0 min,  0.060 sec
 optimizer setup                ...        0 min,  0.000 sec (  0.524%)
 model hessian                  ...        0 min,  0.001 sec (  1.690%)
 ANC generation                 ...        0 min,  0.000 sec (  0.362%)
 coordinate transformation      ...        0 min,  0.000 sec (  0.071%)
 single point calculation       ...        0 min,  0.052 sec ( 86.688%)
 optimization log               ...        0 min,  0.005 sec (  8.738%)
 hessian update                 ...        0 min,  0.000 sec (  0.067%)
 rational function              ...        0 min,  0.001 sec (  1.281%)

================
 final structure:
================
$coord
       -4.55811401260017       -0.19348826206314        0.00003535637285      C
       -3.45643841198644       -2.56528972234091        0.00000718586364      C
       -0.84898469307740       -2.78821373288589       -0.00001680446635      C
        0.63229236379554       -0.63822423189350       -0.00001270013761      C
       -0.44750597192617        1.76864021809293        0.00001510983507      C
       -3.06986628254136        1.95491010498105        0.00003944652508      C
        1.08941534463465        3.81362986088768        0.00001712197963      O
        3.91441730258408       -0.89582209577712       -0.00004477233067      Cl
       -6.58724417144684       -0.00690309594453        0.00005541514461      H
       -4.61169407787926       -4.24215441662024        0.00000403313197      H
        0.04847496165692       -4.61610695655042       -0.00003993679107      H
       -3.93807975083934        3.80098487824707        0.00006206363884      H
        0.10494726675353        5.36028652252038        0.00003827772934      H
$end
 
 Bond Distances (Angstroems)
 ---------------------------
C1-C2=1.3839         C1-C6=1.3830         C1-H9=1.0783         C2-C1=1.3839         C2-C3=1.3848         C2-H10=1.0776        
C3-C2=1.3848         C3-C4=1.3816         C3-H11=1.0776        C4-C3=1.3816         C4-C5=1.3960         C4-Cl8=1.7422        
C5-C4=1.3960         C5-C6=1.3912         C5-O7=1.3537         C6-C1=1.3830         C6-C5=1.3912         C6-H12=1.0795        
O7-C5=1.3537         O7-H13=0.9702        Cl8-C4=1.7422        H9-C1=1.0783         H10-C2=1.0776        H11-C3=1.0776        
H12-C6=1.0795        H13-O7=0.9702        
 C  H  Rav=1.0782 sigma=0.0008  Rmin=1.0776  Rmax=1.0795     4
 C  C  Rav=1.3868 sigma=0.0051  Rmin=1.3816  Rmax=1.3960     6
 O  H  Rav=0.9702 sigma=0.0000  Rmin=0.9702  Rmax=0.9702     1
 O  C  Rav=1.3537 sigma=0.0000  Rmin=1.3537  Rmax=1.3537     1
 Cl C  Rav=1.7422 sigma=0.0000  Rmin=1.7422  Rmax=1.7422     1
 
 selected bond angles (degree)
 --------------------
C6-C1-C2=120.37                H9-C1-C2=120.17                H9-C1-C6=119.46                C3-C2-C1=119.80                
H10-C2-C1=120.52               H10-C2-C3=119.68               C4-C3-C2=119.68                H11-C3-C2=121.04               
H11-C3-C4=119.28               C5-C4-C3=121.27                Cl8-C4-C3=120.08               Cl8-C4-C5=118.65               
C6-C5-C4=118.23                O7-C5-C4=118.91                O7-C5-C6=122.86                C5-C6-C1=120.65                
H12-C6-C1=120.10               H12-C6-C5=119.25               H13-O7-C5=110.60               
 
 selected dihedral angles (degree)
 ---------------------------------
C3-C2-C1-C6=  0.00            C3-C2-C1-H9=180.00            H10-C2-C1-C6=180.00           H10-C2-C1-H9=  0.00           
C4-C3-C2-C1=  0.00            C4-C3-C2-H10=180.00           H11-C3-C2-C1=180.00           H11-C3-C2-H10=  0.00          
C5-C4-C3-C2=  0.00            C5-C4-C3-H11=180.00           Cl8-C4-C3-C2=180.00           Cl8-C4-C3-H11=  0.00          
C6-C5-C4-C3=  0.00            C6-C5-C4-Cl8=180.00           O7-C5-C4-C3=180.00            O7-C5-C4-Cl8=  0.00           
C5-C6-C1-C2=  0.00            C5-C6-C1-H9=180.00            H12-C6-C1-C2=180.00           H12-C6-C1-H9=  0.00           
C1-C6-C5-C4=  0.00            C1-C6-C5-O7=180.00            H12-C6-C5-C4=180.00           H12-C6-C5-O7=  0.00           
H13-O7-C5-C4=180.00           H13-O7-C5-C6=  0.00           
           -------------------------------------------------
          |                Final Singlepoint                |
           -------------------------------------------------

          ...................................................
          :                      SETUP                      :
          :.................................................:
          :  # basis functions                  43          :
          :  # atomic orbitals                  42          :
          :  # shells                           22          :
          :  # electrons                        42          :
          :  max. iterations                   250          :
          :  Hamiltonian                  GFN2-xTB          :
          :  restarted?                      false          :
          :  GBSA solvation                   true          :
          :  PC potential                    false          :
          :  electronic temp.          300.0000000     K    :
          :  accuracy                    1.0000000          :
          :  -> integral cutoff          0.2500000E+02      :
          :  -> integral neglect         0.1000000E-07      :
          :  -> SCF convergence          0.1000000E-05 Eh   :
          :  -> wf. convergence          0.1000000E-03 e    :
          :  Broyden damping             0.4000000          :
          :  net charge                          0          :
          :  unpaired electrons                  0          :
          ...................................................

 iter      E             dE          RMSdq      gap      omega  full diag
   1    -24.3239942 -0.243240E+02  0.767E-05    4.15       0.0  T
   2    -24.3239942 -0.111022E-10  0.625E-05    4.15     443.8  T
   3    -24.3239942 -0.940759E-11  0.496E-05    4.15     558.7  T

   *** convergence criteria satisfied after 3 iterations ***

         #    Occupation            Energy/Eh            Energy/eV
      -------------------------------------------------------------
         1        2.0000           -1.0596789             -28.8353
       ...           ...                  ...                  ...
        15        2.0000           -0.4767179             -12.9722
        16        2.0000           -0.4483086             -12.1991
        17        2.0000           -0.4482569             -12.1977
        18        2.0000           -0.4362227             -11.8702
        19        2.0000           -0.4190189             -11.4021
        20        2.0000           -0.4057069             -11.0398
        21        2.0000           -0.3869202             -10.5286 (HOMO)
        22                         -0.2343929              -6.3782 (LUMO)
        23                         -0.2237531              -6.0886
        24                         -0.1396379              -3.7997
        25                         -0.1020685              -2.7774
        26                          0.0144773               0.3939
       ...                                ...                  ...
        42                          0.6526884              17.7606
      -------------------------------------------------------------
                  HL-Gap            0.1525273 Eh            4.1505 eV
             Fermi-level           -0.3106565 Eh           -8.4534 eV

 SCC (total)                   0 d,  0 h,  0 min,  0.007 sec
 SCC setup                      ...        0 min,  0.001 sec (  9.812%)
 Dispersion                     ...        0 min,  0.000 sec (  0.659%)
 classical contributions        ...        0 min,  0.000 sec (  0.182%)
 integral evaluation            ...        0 min,  0.001 sec ( 20.989%)
 iterations                     ...        0 min,  0.001 sec ( 17.142%)
 molecular gradient             ...        0 min,  0.003 sec ( 49.032%)
 printout                       ...        0 min,  0.000 sec (  1.893%)

         :::::::::::::::::::::::::::::::::::::::::::::::::::::
         ::                     SUMMARY                     ::
         :::::::::::::::::::::::::::::::::::::::::::::::::::::
         :: total energy             -24.012738771902 Eh    ::
         :: total w/o Gsasa/hb       -24.007064085591 Eh    ::
         :: gradient norm              0.000032169873 Eh/a0 ::
         :: HOMO-LUMO gap              4.150479521470 eV    ::
         ::.................................................::
         :: SCC energy               -24.323974503533 Eh    ::
         :: -> isotropic ES            0.035309065340 Eh    ::
         :: -> anisotropic ES         -0.001211751158 Eh    ::
         :: -> anisotropic XC          0.007095411684 Eh    ::
         :: -> dispersion             -0.010957843856 Eh    ::
         :: -> Gsolv                  -0.013640590191 Eh    ::
         ::    -> Gelec               -0.007965903881 Eh    ::
         ::    -> Gsasa               -0.000172059928 Eh    ::
         ::    -> Ghb                 -0.006583386081 Eh    ::
         ::    -> Gshift               0.001080759698 Eh    ::
         :: repulsion energy           0.311235731632 Eh    ::
         :: add. restraining           0.000000000000 Eh    ::
         :: total charge              -0.000000000000 e     ::
         :::::::::::::::::::::::::::::::::::::::::::::::::::::

           ------------------------------------------------- 
          |                Numerical Hessian                |
           ------------------------------------------------- 
step length          :   0.00500
SCC accuracy         :   0.30000
Hessian scale factor :   1.00000
frozen atoms in %    :   0.00000    0
RMS gradient         :   0.00003
estimated CPU  time      0.01 min
estimated wall time      0.01 min

writing file <hessian>.

 projected vibrational frequencies (cm⁻¹)
eigval :       -0.00    -0.00    -0.00     0.00     0.00     0.00
eigval :      144.40   205.37   249.86   349.67   386.43   426.29
eigval :      467.71   512.52   532.68   659.05   662.72   777.86
eigval :      818.75   862.81   903.85   916.62  1013.67  1085.86
eigval :     1099.67  1154.64  1173.10  1242.49  1264.86  1325.29
eigval :     1425.86  1462.34  1571.34  1591.23  3086.47  3101.21
eigval :     3108.13  3117.92  3435.14
           -------------------------------------------------
          |                Property Printout                |
           -------------------------------------------------

    * Orbital Energies and Occupations

         #    Occupation            Energy/Eh            Energy/eV
      -------------------------------------------------------------
         1        2.0000           -1.0596790             -28.8353
       ...           ...                  ...                  ...
         9        2.0000           -0.5421783             -14.7534
        10        2.0000           -0.5345405             -14.5456
        11        2.0000           -0.5228442             -14.2273
        12        2.0000           -0.4981806             -13.5562
        13        2.0000           -0.4907967             -13.3553
        14        2.0000           -0.4886997             -13.2982
        15        2.0000           -0.4767176             -12.9721
        16        2.0000           -0.4483083             -12.1991
        17        2.0000           -0.4482567             -12.1977
        18        2.0000           -0.4362224             -11.8702
        19        2.0000           -0.4190187             -11.4021
        20        2.0000           -0.4057065             -11.0398
        21        2.0000           -0.3869199             -10.5286 (HOMO)
        22                         -0.2343925              -6.3781 (LUMO)
        23                         -0.2237527              -6.0886
        24                         -0.1396370              -3.7997
        25                         -0.1020682              -2.7774
        26                          0.0144775               0.3940
        27                          0.0189884               0.5167
        28                          0.0192086               0.5227
        29                          0.0312002               0.8490
        30                          0.0655895               1.7848
        31                          0.1236204               3.3639
        32                          0.1366828               3.7193
       ...                                ...                  ...
        42                          0.6526887              17.7606
      -------------------------------------------------------------
                  HL-Gap            0.1525274 Eh            4.1505 eV
             Fermi-level           -0.3106562 Eh           -8.4534 eV

     #   Z          covCN         q      C6AA      α(0)
     1   6 C        2.919    -0.038    28.946     8.823
     2   6 C        2.921    -0.045    29.117     8.849
     3   6 C        2.949    -0.045    29.125     8.852
     4   6 C        2.889     0.073    26.365     8.418
     5   6 C        2.876     0.143    24.877     8.176
     6   6 C        2.922    -0.075    29.879     8.964
     7   8 O        1.659    -0.441    21.669     6.284
     8  17 Cl       0.958    -0.220   106.096    15.758
     9   1 H        0.926     0.066     2.135     2.285
    10   1 H        0.926     0.064     2.148     2.292
    11   1 H        0.926     0.068     2.107     2.270
    12   1 H        0.926     0.066     2.125     2.279
    13   1 H        0.804     0.384     0.515     1.127

 Mol. C6AA /au·bohr⁶  :       2829.942268
 Mol. C8AA /au·bohr⁸  :      78795.769413
 Mol. α(0) /au        :         84.377277


Wiberg/Mayer (AO) data.
largest (>0.10) Wiberg bond orders for each atom

 ---------------------------------------------------------------------------
     #   Z sym  total        # sym  WBO       # sym  WBO       # sym  WBO
 ---------------------------------------------------------------------------
     1   6 C    3.990 --     6 C    1.447     2 C    1.434     9 H    0.968
     2   6 C    3.988 --     1 C    1.434     3 C    1.429    10 H    0.967
     3   6 C    3.986 --     2 C    1.429     4 C    1.423    11 H    0.966
                             6 C    0.105
     4   6 C    3.895 --     3 C    1.423     5 C    1.333     8 Cl   0.943
     5   6 C    3.945 --     6 C    1.366     4 C    1.333     7 O    1.092
     6   6 C    3.984 --     1 C    1.447     5 C    1.366    12 H    0.963
                             3 C    0.105
     7   8 O    2.095 --     5 C    1.092    13 H    0.832
     8  17 Cl   1.068 --     4 C    0.943
     9   1 H    0.995 --     1 C    0.968
    10   1 H    0.996 --     2 C    0.967
    11   1 H    0.995 --     3 C    0.966
    12   1 H    0.996 --     6 C    0.963
    13   1 H    0.853 --     7 O    0.832
 ---------------------------------------------------------------------------

Topologies differ in total number of bonds
Writing topology from bond orders to xtbtopo.mol

molecular dipole:
                 x           y           z       tot (Debye)
 q only:       -1.708       0.545       0.000
   full:       -1.502       0.685       0.000       4.196
molecular quadrupole (traceless):
                xx          xy          yy          xz          yz          zz
 q only:       -4.426      -1.240       7.871       0.000       0.000      -3.445
  q+dip:       -3.366      -2.820       9.754      -0.000       0.000      -6.388
   full:       -3.769      -2.658       8.298      -0.000       0.000      -4.529

           -------------------------------------------------
          |                Geometry Summary                 |
           -------------------------------------------------

      molecular mass/u    :      128.5564616
   center of mass at/Å    :       -0.0000186      -0.0000481      -0.0000016
  moments of inertia/u·Å² :        0.1695400E+03   0.3262882E+03   0.4958281E+03
rotational constants/cm⁻¹ :        0.9943160E-01   0.5166486E-01   0.3399894E-01

 * 13 selected distances

     #   Z          #   Z                                           value/Å
     1   6 C        2   6 C                                       1.3838902
     2   6 C        3   6 C                                       1.3848388
     3   6 C        4   6 C                                       1.3816125
     4   6 C        5   6 C                                       1.3959613
     1   6 C        6   6 C                                       1.3830164
     5   6 C        6   6 C                                       1.3911898
     5   6 C        7   8 O                                       1.3537126
     4   6 C        8  17 Cl                                      1.7421670 (max)
     1   6 C        9   1 H                                       1.0782996
     2   6 C       10   1 H                                       1.0775602
     3   6 C       11   1 H                                       1.0775779
     6   6 C       12   1 H                                       1.0795458
     7   8 O       13   1 H                                       0.9701891 (min)

 * 5 distinct bonds (by element types)

   Z      Z             #   av. dist./Å        max./Å        min./Å
   1 H    6 C           4     1.0782459     1.0795458     1.0775602
   6 C    6 C           6     1.3867515     1.3959613     1.3816125
   1 H    8 O           1     0.9701891     0.9701891     0.9701891
   6 C    8 O           1     1.3537126     1.3537126     1.3537126
   6 C   17 Cl          1     1.7421670     1.7421670     1.7421670

           -------------------------------------------------
          |               Frequency Printout                |
           -------------------------------------------------
 projected vibrational frequencies (cm⁻¹)
eigval :       -0.00    -0.00    -0.00     0.00     0.00     0.00
eigval :      144.40   205.37   249.86   349.67   386.43   426.29
eigval :      467.71   512.52   532.68   659.05   662.72   777.86
eigval :      818.75   862.81   903.85   916.62  1013.67  1085.86
eigval :     1099.67  1154.64  1173.10  1242.49  1264.86  1325.29
eigval :     1425.86  1462.34  1571.34  1591.23  3086.47  3101.21
eigval :     3108.13  3117.92  3435.14
 reduced masses (amu)
   1: 16.63   2: 20.03   3: 12.91   4: 17.97   5: 12.39   6: 30.24   7: 15.43   8: 22.42
   9: 11.57  10: 22.41  11:  3.80  12:  8.22  13: 13.91  14: 10.30  15: 13.00  16: 11.54
  17: 13.73  18:  3.31  19: 12.12  20:  3.35  21:  3.85  22:  3.22  23: 11.66  24:  5.80
  25:  4.50  26:  3.25  27:  1.40  28:  5.60  29:  8.12  30: 11.57  31:  9.34  32:  9.73
  33: 11.49  34: 11.62  35:  1.80  36:  1.80  37:  1.84  38:  1.91  39:  1.87
 IR intensities (km·mol⁻¹)
   1:  1.18   2:  0.10   3:  0.62   4:  0.44   5:  0.16   6:  1.54   7:  0.33   8:  1.40
   9:  0.53  10:  1.65  11:151.29  12: 37.71  13: 15.41  14:  0.04  15:  2.77  16:  3.16
  17: 14.29  18: 48.40  19: 44.18  20:  0.52  21:  0.58  22:  0.01  23: 53.04  24: 30.52
  25:254.47  26:  2.07  27:  0.84  28:  3.97  29:280.31  30: 34.32  31: 29.13  32:140.21
  33: 15.22  34: 48.51  35: 28.16  36: 19.72  37: 58.29  38: 26.68  39:172.52
 Raman intensities (Ä⁴*amu⁻¹)
   1:  0.00   2:  0.00   3:  0.00   4:  0.00   5:  0.00   6:  0.00   7:  0.00   8:  0.00
   9:  0.00  10:  0.00  11:  0.00  12:  0.00  13:  0.00  14:  0.00  15:  0.00  16:  0.00
  17:  0.00  18:  0.00  19:  0.00  20:  0.00  21:  0.00  22:  0.00  23:  0.00  24:  0.00
  25:  0.00  26:  0.00  27:  0.00  28:  0.00  29:  0.00  30:  0.00  31:  0.00  32:  0.00
  33:  0.00  34:  0.00  35:  0.00  36:  0.00  37:  0.00  38:  0.00  39:  0.00
 output can be read by thermo (or use thermo option).
 writing <g98.out> molden fake output.
 recommended (thermochemical) frequency scaling factor: 1.0
           -------------------------------------------------
          |             Thermodynamic Functions             |
           -------------------------------------------------

Molecule has the following symmetry elements: (sigma) 
It seems to be the Cs point group
cs  symmetry found (for desy threshold:  0.10E+00) used in thermo

          ...................................................
          :                      SETUP                      :
          :.................................................:
          :  # frequencies                          33      :
          :  # imaginary freq.                       0      :
          :  linear?                             false      :
          :  only rotor calc.                    false      :
          :  symmetry                               cs      :
          :  rotational number                       1      :
          :  scaling factor                  1.0000000      :
          :  rotor cutoff                    0.0000000 cm⁻¹ :
          :  imag. cutoff                 -100.0000000 cm⁻¹ :
          :.................................................:

    mode    ω/cm⁻¹     T·S(HO)/kcal·mol⁻¹    T·S(FR)/kcal·mol⁻¹   T·S(vib)
   ------------------------------------------------------------------------
       1    144.40    -0.81834 (100.00%)    -0.74226 (  0.00%)    -0.81834
       2    205.37    -0.62148 (100.00%)    -0.63795 (  0.00%)    -0.62148
       3    249.86    -0.51627 (100.00%)    -0.57987 (  0.00%)    -0.51627
   ------------------------------------------------------------------------

   temp. (K)  partition function   enthalpy   heat capacity  entropy
                                   cal/mol     cal/K/mol   cal/K/mol   J/K/mol
 298.15  VIB   12.2                 2567.234     20.531     13.578
         ROT  0.400E+06              888.752      2.981     28.615
         INT  0.487E+07             3455.986     23.512     42.193
         TR   0.141E+28             1481.254      4.968     40.448
         TOT                        4937.2404    28.4797    82.6414   345.7715

       T/K    H(0)-H(T)+PV         H(T)/Eh          T*S/Eh         G(T)/Eh
   ------------------------------------------------------------------------
    298.15    0.786799E-02    0.993041E-01    0.392656E-01    0.600385E-01
   ------------------------------------------------------------------------

         :::::::::::::::::::::::::::::::::::::::::::::::::::::
         ::                  THERMODYNAMIC                  ::
         :::::::::::::::::::::::::::::::::::::::::::::::::::::
         :: total free energy         -23.952700259180 Eh   ::
         ::.................................................::
         :: total energy              -24.012738772023 Eh   ::
         :: zero point energy           0.091436104868 Eh   ::
         :: G(RRHO) w/o ZPVE           -0.031397592025 Eh   ::
         :: G(RRHO) contrib.            0.060038512843 Eh   ::
         :::::::::::::::::::::::::::::::::::::::::::::::::::::

optimized geometry written to: xtbopt.coord


           -------------------------------------------------
          | TOTAL ENERGY              -24.012738772023 Eh   |
          | TOTAL ENTHALPY            -23.913434673752 Eh   |
          | TOTAL FREE ENERGY         -23.952700259180 Eh   |
          | GRADIENT NORM               0.000032119004 Eh/α |
          | HOMO-LUMO GAP               4.150481228278 eV   |
           -------------------------------------------------

------------------------------------------------------------------------
 * finished run on 2025/04/03 at 13:55:04.423     
------------------------------------------------------------------------
 total:
 * wall-time:     0 d,  0 h,  0 min,  0.749 sec
 *  cpu-time:     0 d,  0 h,  0 min,  0.666 sec
 * ratio c/w:     0.889 speedup
 SCF:
 * wall-time:     0 d,  0 h,  0 min,  0.024 sec
 *  cpu-time:     0 d,  0 h,  0 min,  0.012 sec
 * ratio c/w:     0.511 speedup
 ANC optimizer:
 * wall-time:     0 d,  0 h,  0 min,  0.077 sec
 *  cpu-time:     0 d,  0 h,  0 min,  0.063 sec
 * ratio c/w:     0.810 speedup
 analytical hessian:
 * wall-time:     0 d,  0 h,  0 min,  0.591 sec
 *  cpu-time:     0 d,  0 h,  0 min,  0.580 sec
 * ratio c/w:     0.981 speedup

