13
 energy: -24.012054015690 gnorm: 0.018027814897 xtb: 6.7.1 (edcfbbe)
C           -2.41833842199197       -0.10039817036581        0.00001840103104
C           -1.83209748473030       -1.36363177853833        0.00000373224904
C           -0.44516626736050       -1.48011796753403       -0.00000381156044
C            0.34139235947352       -0.33580250020316       -0.00000056960491
C           -0.23500605159071        0.93839012828786        0.00001062156195
C           -1.62726439663330        1.04189268079590        0.00002329754953
O            0.58284514469670        2.03317546401847        0.00000324659925
Cl           2.09239061793808       -0.48526219361410       -0.00002944331598
H           -3.49841827701330        0.00160833029030        0.00002809943545
H           -2.44470952344134       -2.25828626196283       -0.00000683984619
H            0.02857292046726       -2.45556925502112       -0.00001772204019
H           -2.07573426203467        2.03158719461099        0.00003640824354
H            0.03337004603459        2.83048739434972        0.00001914036161
13
 energy: -24.012647152672 gnorm: 0.008178706224 xtb: 6.7.1 (edcfbbe)
C           -2.41211217855012       -0.10085912722579        0.00001920025905
C           -1.82881479107854       -1.35711461540048        0.00000331014111
C           -0.44835798138636       -1.47559366239379       -0.00000956097290
C            0.33577481893615       -0.33716699818287       -0.00000792369270
C           -0.23616209048197        0.93445729145523        0.00000690463418
C           -1.62432333774408        1.03599089043780        0.00002185306423
O            0.57818305022256        2.02374773594945        0.00000550211119
Cl           2.08029956750290       -0.47978510041219       -0.00002263421080
H           -3.48710290975149       -0.00086694387021        0.00002885801465
H           -2.44033362523349       -2.24574154111247        0.00000095664998
H            0.02412549741207       -2.44544708831221       -0.00001878053112
H           -2.07741246046473        2.01735796071301        0.00003447626869
H            0.03807284443119        2.82909426346836        0.00002239892814
13
 energy: -24.012721612861 gnorm: 0.003582519327 xtb: 6.7.1 (edcfbbe)
C           -2.41102047423260       -0.10140454927917        0.00001864848987
C           -1.82841587630462       -1.35621243598146        0.00000400457964
C           -0.44923928463637       -1.47519104525009       -0.00000839970343
C            0.33425443740166       -0.33788581280216       -0.00000639595240
C           -0.23604316024313        0.93443627960945        0.00000773116542
C           -1.62355926240852        1.03452962534643        0.00002054220222
O            0.57662247138011        2.01968225489608        0.00000787942335
Cl           2.07419370676842       -0.47597360903811       -0.00002440172015
H           -3.48445689141754       -0.00241453792232        0.00002913076784
H           -2.43988472917758       -2.24297896810544        0.00000210300428
H            0.02407568537636       -2.44274581821467       -0.00002079492248
H           -2.08039913542480        2.01222268324186        0.00003238190193
H            0.04570891673268        2.83200899861346        0.00002213142763
13
 energy: -24.012736017774 gnorm: 0.001247330714 xtb: 6.7.1 (edcfbbe)
C           -2.41141528751928       -0.10187328025009        0.00001903298710
C           -1.82873535320038       -1.35683356289081        0.00000412287492
C           -0.44931582091928       -1.47552518874487       -0.00000960046896
C            0.33426519520782       -0.33799869090016       -0.00000788793132
C           -0.23608654865232        0.93531183019485        0.00000740796542
C           -1.62378746618092        1.03446139088237        0.00002061598741
O            0.57635852585080        2.01839834847353        0.00000864316265
Cl           2.07190835732283       -0.47440700932621       -0.00002345271264
H           -3.48483589644813       -0.00322102700360        0.00002901558355
H           -2.44032882663429       -2.24359104685088        0.00000323729718
H            0.02501998990735       -2.44259721505844       -0.00002077409021
H           -2.08271791191782        2.01116612739661        0.00003189090861
H            0.05150744699769        2.83478238919156        0.00002230910000
13
 energy: -24.012738382444 gnorm: 0.000667234402 xtb: 6.7.1 (edcfbbe)
C           -2.41210026836320       -0.10237220142623        0.00001852388868
C           -1.82913892655322       -1.35765333912332        0.00000401537940
C           -0.44924441567370       -1.47566887552676       -0.00000866411677
C            0.33463894073062       -0.33779021572290       -0.00000668536402
C           -0.23656304195247        0.93617976250442        0.00000785252170
C           -1.62443011032846        1.03458638187739        0.00002038347103
O            0.57648464775098        2.01801998015955        0.00000929107940
Cl           2.07111260280230       -0.47389084188882       -0.00002427688678
H           -3.48592646440246       -0.00375552733865        0.00002931553007
H           -2.44068011462928       -2.24498543332270        0.00000256727918
H            0.02593048885612       -2.44287747556114       -0.00002115120465
H           -2.08440258448876        2.01131284755858        0.00003226760086
H            0.05615565006560        2.83696800292444        0.00002112148560
13
 energy: -24.012738760128 gnorm: 0.000087654359 xtb: 6.7.1 (edcfbbe)
C           -2.41203729641270       -0.10235586628771        0.00001915309976
C           -1.82907237847182       -1.35750456508000        0.00000403965165
C           -0.44926335287089       -1.47548559712715       -0.00000946737128
C            0.33460951461095       -0.33773332174431       -0.00000761019590
C           -0.23673836955022        0.93595747753556        0.00000772113544
C           -1.62447166095806        1.03451741192613        0.00002100691250
O            0.57650656145155        2.01815313271876        0.00000890346573
Cl           2.07150201107514       -0.47413644823963       -0.00002343797558
H           -3.48583212536936       -0.00363932002035        0.00002896894484
H           -2.44047050015868       -2.24485628889414        0.00000255895246
H            0.02568865918271       -2.44276706807578       -0.00002077955179
H           -2.08395306372985        2.01143143988950        0.00003240274578
H            0.05536840501531        2.83649207851297        0.00002110085011
13
 energy: -24.012738771733 gnorm: 0.000032792783 xtb: 6.7.1 (edcfbbe)
C           -2.41205006017244       -0.10238957886133        0.00001870978677
C           -1.82906843851814       -1.35749286043032        0.00000380259528
C           -0.44926335198331       -1.47545916657416       -0.00000889254063
C            0.33459470954953       -0.33773371896506       -0.00000672062340
C           -0.23680996208699        0.93592409770393        0.00000799578038
C           -1.62450327724498        1.03449387692288        0.00002087420212
O            0.57649377359032        2.01808601320663        0.00000906056143
Cl           2.07142043049773       -0.47404863810995       -0.00002369249707
H           -3.48581949819311       -0.00365296105853        0.00002932443166
H           -2.44040340967691       -2.24485144241327        0.00000213424153
H            0.02565184500831       -2.44273860450418       -0.00002113363971
H           -2.08394205886862        2.01139457656094        0.00003284266330
H            0.05553570191268        2.83654147163627        0.00002025570205
