 Entering Gaussian System
 *********************************************
 Gaussian 98:
 frequency output generated by the xtb code
 *********************************************
                         Standard orientation:
 --------------------------------------------------------------------
  Center     Atomic     Atomic              Coordinates (Angstroms)
  Number     Number      Type              X           Y           Z
 --------------------------------------------------------------------
    1          6             0       -2.415263   -0.079308   -0.000185
    2          6             0       -1.841496   -1.340246   -0.000145
    3          6             0       -0.463497   -1.468945   -0.000064
    4          6             0        0.326720   -0.335035   -0.000025
    5          6             0       -0.232218    0.942700   -0.000065
    6          6             0       -1.621392    1.050679   -0.000146
    7          8             0        0.508087    2.070419   -0.000029
    8         17             0        2.072902   -0.496453    0.000074
    9          1             0       -3.488221    0.026173   -0.000249
   10          1             0       -2.459250   -2.223188   -0.000176
   11          1             0       -0.000003   -2.442667   -0.000033
   12          1             0       -2.048691    2.040156   -0.000177
   13          1             0        1.455030    1.850241    0.000028
 --------------------------------------------------------------------
     1 basis functions        1 primitive gaussians
     1 alpha electrons        1 beta electrons
 
 Harmonic frequencies (cm**-1), IR intensities (km*mol⁻¹),
 Raman scattering activities (A**4/amu), Raman depolarization ratios,
 reduced masses (AMU), force constants (mDyne/A) and normal coordinates:
                      1                      2                      3
                        a                      a                      a 
 Frequencies --   145.6065               222.7602               250.6367
 Red. masses --    15.1594                22.1513                11.5547
 Frc consts  --     0.0000                 0.0000                 0.0000
 IR Inten    --     0.0272                 6.9759                 0.1203
 Raman Activ --     0.0000                 0.0000                 0.0000
 Depolar     --     0.0000                 0.0000                 0.0000
 Atom AN      X      Y      Z        X      Y      Z        X      Y      Z
   1   6     0.00  -0.00  -0.36     0.02  -0.06   0.00     0.00  -0.00  -0.22
   2   6    -0.00   0.00   0.19     0.13  -0.01   0.00     0.00  -0.00  -0.37
   3   6    -0.00   0.00   0.41     0.13   0.18  -0.00    -0.00   0.00   0.26
   4   6    -0.00   0.00   0.20     0.09   0.22  -0.00    -0.00   0.00   0.45
   5   6    -0.00   0.00   0.09    -0.02   0.17  -0.00    -0.00   0.00   0.30
   6   6     0.00  -0.00  -0.34    -0.06  -0.02  -0.00    -0.00   0.00   0.38
   7   8    -0.00   0.00   0.43    -0.40   0.46  -0.00     0.00   0.00  -0.37
   8  17     0.00  -0.00  -0.42     0.09  -0.63   0.00     0.00  -0.00  -0.16
   9   1     0.00  -0.00  -0.21     0.00  -0.04   0.00     0.00  -0.00  -0.18
  10   1    -0.00   0.00   0.10     0.07  -0.02   0.00     0.00  -0.00  -0.26
  11   1    -0.00   0.00   0.19     0.07   0.07   0.00    -0.00   0.00   0.09
  12   1     0.00  -0.00  -0.18    -0.04  -0.01  -0.00    -0.00   0.00   0.13
  13   1    -0.00   0.00   0.16    -0.08   0.21  -0.00     0.00   0.00  -0.15
                      4                      5                      6
                        a                      a                      a 
 Frequencies --   342.9481               413.5497               433.3042
 Red. masses --    22.8177                 9.6370                 2.3171
 Frc consts  --     0.0000                 0.0000                 0.0000
 IR Inten    --     2.0414                 1.5200               132.8750
 Raman Activ --     0.0000                 0.0000                 0.0000
 Depolar     --     0.0000                 0.0000                 0.0000
 Atom AN      X      Y      Z        X      Y      Z        X      Y      Z
   1   6    -0.25   0.19  -0.00    -0.00   0.00   0.26     0.00   0.00  -0.02
   2   6    -0.23   0.19  -0.00    -0.00   0.00   0.05    -0.00  -0.00   0.07
   3   6    -0.21   0.00  -0.00     0.00   0.00  -0.36     0.00  -0.00  -0.09
   4   6     0.11  -0.18   0.00    -0.00   0.00   0.58    -0.00  -0.00   0.07
   5   6    -0.04  -0.23  -0.00    -0.00   0.00   0.26     0.00  -0.00   0.10
   6   6    -0.03  -0.01  -0.00     0.00  -0.00  -0.37     0.00  -0.00  -0.12
   7   8    -0.38  -0.08  -0.00     0.00  -0.00  -0.14    -0.00   0.00   0.24
   8  17     0.68   0.04   0.00     0.00  -0.00  -0.08    -0.00   0.00   0.02
   9   1    -0.07   0.08  -0.00    -0.00   0.00   0.10     0.00   0.00  -0.04
  10   1    -0.07   0.06  -0.00     0.00  -0.00  -0.04    -0.00   0.00   0.03
  11   1    -0.14  -0.04  -0.00     0.00  -0.00  -0.32     0.00  -0.00  -0.07
  12   1     0.07   0.03   0.00     0.00  -0.00  -0.31     0.00  -0.00  -0.09
  13   1    -0.08   0.06  -0.00    -0.00  -0.00   0.16     0.00   0.00  -0.94
                      7                      8                      9
                        a                      a                      a 
 Frequencies --   462.2414               511.8611               530.1948
 Red. masses --    13.9227                10.3668                12.9113
 Frc consts  --     0.0000                 0.0000                 0.0000
 IR Inten    --    12.8572                 3.5587                 4.1898
 Raman Activ --     0.0000                 0.0000                 0.0000
 Depolar     --     0.0000                 0.0000                 0.0000
 Atom AN      X      Y      Z        X      Y      Z        X      Y      Z
   1   6     0.26   0.13   0.00    -0.00   0.00   0.40     0.13   0.22   0.00
   2   6    -0.04  -0.01  -0.00     0.00  -0.00  -0.46     0.41   0.32   0.00
   3   6    -0.07  -0.26  -0.00    -0.00   0.00   0.28     0.34  -0.14   0.00
   4   6     0.04  -0.28   0.00    -0.00   0.00   0.24     0.08  -0.06   0.00
   5   6     0.32  -0.18   0.00     0.00  -0.00  -0.49    -0.23  -0.20  -0.00
   6   6     0.41  -0.04   0.00     0.00  -0.00  -0.19    -0.15   0.34  -0.00
   7   8    -0.35   0.27  -0.00    -0.00   0.00   0.22    -0.29  -0.34  -0.00
   8  17    -0.32   0.13  -0.00     0.00  -0.00  -0.05    -0.17  -0.06  -0.00
   9   1     0.08   0.10   0.00    -0.00   0.00   0.29     0.03  -0.06   0.00
  10   1    -0.08   0.04  -0.00     0.00  -0.00  -0.23     0.08   0.11   0.00
  11   1    -0.05  -0.09  -0.00    -0.00   0.00   0.17     0.06  -0.05   0.00
  12   1     0.18   0.01   0.00    -0.00  -0.00   0.02     0.02   0.12   0.00
  13   1    -0.04   0.29   0.00     0.00   0.00  -0.06    -0.07  -0.08  -0.00
                     10                     11                     12
                        a                      a                      a 
 Frequencies --   656.8131               657.5988               781.6425
 Red. masses --    11.4883                13.5863                 3.3201
 Frc consts  --     0.0000                 0.0000                 0.0000
 IR Inten    --     3.1228                17.9808                47.9240
 Raman Activ --     0.0000                 0.0000                 0.0000
 Depolar     --     0.0000                 0.0000                 0.0000
 Atom AN      X      Y      Z        X      Y      Z        X      Y      Z
   1   6    -0.00  -0.00  -0.30     0.35   0.02  -0.00    -0.00   0.00   0.17
   2   6     0.00   0.00   0.28    -0.06  -0.22   0.00    -0.00   0.00   0.21
   3   6     0.00   0.00  -0.30    -0.08  -0.44  -0.00    -0.00   0.00   0.19
   4   6     0.00   0.00   0.49    -0.42  -0.09   0.00     0.00  -0.00  -0.12
   5   6     0.00  -0.00  -0.60    -0.15   0.21  -0.00     0.00  -0.00  -0.22
   6   6     0.00  -0.00   0.30    -0.15   0.39   0.00    -0.00  -0.00   0.18
   7   8    -0.00  -0.00   0.09     0.03   0.18   0.00    -0.00   0.00   0.06
   8  17    -0.00   0.00  -0.02     0.30  -0.03   0.00    -0.00   0.00   0.02
   9   1    -0.00   0.00  -0.04     0.09  -0.03  -0.00     0.00  -0.00  -0.45
  10   1     0.00  -0.00   0.11    -0.14   0.02   0.00     0.00  -0.00  -0.55
  11   1    -0.00   0.00  -0.07     0.03  -0.10  -0.00     0.00  -0.00  -0.40
  12   1     0.00  -0.00   0.18    -0.14   0.07   0.00     0.00  -0.00  -0.35
  13   1     0.00  -0.00   0.00    -0.00   0.00   0.00    -0.00   0.00   0.01
                     13                     14                     15
                        a                      a                      a 
 Frequencies --   820.4335               871.4055               903.8431
 Red. masses --    12.0470                 3.3789                 3.8056
 Frc consts  --     0.0000                 0.0000                 0.0000
 IR Inten    --    39.8757                 1.4875                 1.0228
 Raman Activ --     0.0000                 0.0000                 0.0000
 Depolar     --     0.0000                 0.0000                 0.0000
 Atom AN      X      Y      Z        X      Y      Z        X      Y      Z
   1   6    -0.49   0.01  -0.00     0.00  -0.00  -0.15    -0.00   0.00   0.13
   2   6     0.18   0.27   0.00    -0.00   0.00   0.18    -0.00  -0.00   0.28
   3   6     0.17  -0.42   0.00    -0.00   0.00   0.23     0.00  -0.00  -0.33
   4   6     0.03  -0.23   0.00     0.00   0.00  -0.01    -0.00  -0.00   0.02
   5   6     0.03   0.01   0.00    -0.00   0.00   0.06    -0.00  -0.00   0.08
   6   6    -0.19  -0.10  -0.00     0.00  -0.00  -0.32     0.00   0.00  -0.20
   7   8     0.29   0.41   0.00    -0.00   0.00  -0.02     0.00   0.00  -0.01
   8  17    -0.02   0.01  -0.00    -0.00  -0.00   0.00     0.00  -0.00  -0.01
   9   1    -0.15  -0.11  -0.00    -0.00   0.00   0.23     0.00  -0.00  -0.20
  10   1     0.06   0.07   0.00     0.00  -0.00  -0.27     0.00  -0.00  -0.52
  11   1    -0.07  -0.17  -0.00     0.00  -0.00  -0.49    -0.00   0.00   0.60
  12   1    -0.03  -0.01   0.00    -0.00   0.00   0.65    -0.00   0.00   0.27
  13   1     0.07   0.10   0.00    -0.00  -0.00  -0.01     0.00   0.00   0.00
                     16                     17                     18
                        a                      a                      a 
 Frequencies --   919.7047              1009.0319              1077.1232
 Red. masses --     3.2416                11.3765                 5.5412
 Frc consts  --     0.0000                 0.0000                 0.0000
 IR Inten    --     0.1615                23.6398                33.9353
 Raman Activ --     0.0000                 0.0000                 0.0000
 Depolar     --     0.0000                 0.0000                 0.0000
 Atom AN      X      Y      Z        X      Y      Z        X      Y      Z
   1   6     0.00  -0.00  -0.36     0.09  -0.07   0.00     0.36  -0.12   0.00
   2   6    -0.00   0.00   0.19    -0.17  -0.27  -0.00     0.09   0.35   0.00
   3   6     0.00  -0.00  -0.00    -0.09   0.13  -0.00    -0.16   0.08  -0.00
   4   6     0.00  -0.00  -0.07     0.62  -0.20   0.00     0.11  -0.10   0.00
   5   6    -0.00   0.00   0.05    -0.05  -0.19  -0.00    -0.09   0.08  -0.00
   6   6    -0.00  -0.00   0.17    -0.29   0.41  -0.00     0.00  -0.25   0.00
   7   8    -0.00   0.00   0.01     0.13   0.14   0.00    -0.01   0.09  -0.00
   8  17    -0.00   0.00  -0.00    -0.11   0.02  -0.00    -0.01   0.00  -0.00
   9   1    -0.00   0.00   0.69     0.01  -0.13   0.00     0.10  -0.10   0.00
  10   1     0.00  -0.00  -0.40    -0.02  -0.09  -0.00    -0.11   0.20  -0.00
  11   1    -0.00   0.00   0.10    -0.14  -0.03  -0.00    -0.43  -0.16  -0.00
  12   1     0.00  -0.00  -0.39    -0.12   0.10  -0.00    -0.43  -0.26  -0.00
  13   1     0.00   0.00  -0.01     0.05   0.14   0.00    -0.05  -0.22  -0.00
                     19                     20                     21
                        a                      a                      a 
 Frequencies --  1111.5915              1149.1709              1170.5672
 Red. masses --     4.8669                 3.3604                 1.5397
 Frc consts  --     0.0000                 0.0000                 0.0000
 IR Inten    --   253.7698               103.7775                 1.1271
 Raman Activ --     0.0000                 0.0000                 0.0000
 Depolar     --     0.0000                 0.0000                 0.0000
 Atom AN      X      Y      Z        X      Y      Z        X      Y      Z
   1   6     0.05  -0.05   0.00     0.05  -0.14   0.00     0.04  -0.07   0.00
   2   6     0.16   0.13   0.00     0.13   0.04   0.00    -0.07   0.07  -0.00
   3   6    -0.19   0.14  -0.00    -0.21   0.16  -0.00     0.00   0.01   0.00
   4   6    -0.28   0.02  -0.00    -0.19  -0.08  -0.00     0.07   0.09   0.00
   5   6     0.21  -0.08   0.00    -0.03  -0.06  -0.00     0.01  -0.07   0.00
   6   6    -0.12   0.03  -0.00     0.09   0.09   0.00    -0.04  -0.09  -0.00
   7   8     0.06  -0.27   0.00    -0.01   0.17  -0.00     0.03   0.02   0.00
   8  17     0.04   0.01   0.00     0.03   0.00   0.00    -0.01   0.00  -0.00
   9   1    -0.02  -0.32   0.00    -0.03  -0.47   0.00    -0.03  -0.50   0.00
  10   1     0.13  -0.02   0.00     0.29  -0.16   0.00    -0.60   0.43  -0.00
  11   1    -0.09   0.03  -0.00    -0.29  -0.06  -0.00     0.29   0.14   0.00
  12   1    -0.17  -0.05  -0.00     0.48   0.23   0.00     0.21   0.07   0.00
  13   1     0.18   0.70   0.00    -0.07  -0.29  -0.00     0.01   0.00   0.00
                     22                     23                     24
                        a                      a                      a 
 Frequencies --  1242.1389              1265.2836              1325.7648
 Red. masses --     5.3665                 8.2809                11.4588
 Frc consts  --     0.0000                 0.0000                 0.0000
 IR Inten    --   103.5423               119.9202                25.2136
 Raman Activ --     0.0000                 0.0000                 0.0000
 Depolar     --     0.0000                 0.0000                 0.0000
 Atom AN      X      Y      Z        X      Y      Z        X      Y      Z
   1   6     0.07   0.08   0.00     0.23  -0.09   0.00     0.03   0.39  -0.00
   2   6    -0.03   0.17  -0.00     0.15   0.05   0.00     0.33  -0.23   0.00
   3   6    -0.14   0.16  -0.00    -0.05   0.16  -0.00    -0.36  -0.17  -0.00
   4   6    -0.14  -0.36  -0.00    -0.13  -0.02  -0.00     0.05   0.38   0.00
   5   6     0.01  -0.30   0.00    -0.40  -0.38  -0.00     0.35  -0.26   0.00
   6   6     0.03   0.03   0.00    -0.22  -0.21  -0.00    -0.34  -0.14  -0.00
   7   8     0.04   0.23   0.00     0.23   0.20   0.00    -0.02   0.08  -0.00
   8  17     0.02   0.01   0.00     0.03  -0.00   0.00    -0.01   0.01  -0.00
   9   1     0.01  -0.11   0.00     0.11   0.43   0.00    -0.00   0.01  -0.00
  10   1     0.22  -0.11   0.00    -0.07   0.10  -0.00    -0.00   0.00  -0.00
  11   1     0.55   0.33   0.00    -0.03   0.04  -0.00    -0.02  -0.01   0.00
  12   1    -0.30  -0.13  -0.00     0.31   0.09   0.00    -0.05  -0.02  -0.00
  13   1    -0.05  -0.19  -0.00     0.08   0.21   0.00    -0.05  -0.21  -0.00
                     25                     26                     27
                        a                      a                      a 
 Frequencies --  1427.3453              1460.1829              1570.0424
 Red. masses --     9.2609                 9.9665                11.4820
 Frc consts  --     0.0000                 0.0000                 0.0000
 IR Inten    --     4.8473               223.7536                 7.6189
 Raman Activ --     0.0000                 0.0000                 0.0000
 Depolar     --     0.0000                 0.0000                 0.0000
 Atom AN      X      Y      Z        X      Y      Z        X      Y      Z
   1   6     0.23   0.28   0.00    -0.08   0.28  -0.00     0.20  -0.24   0.00
   2   6    -0.30   0.17  -0.00    -0.15  -0.21  -0.00    -0.47   0.31  -0.00
   3   6    -0.12  -0.33  -0.00     0.38   0.11   0.00     0.33  -0.06   0.00
   4   6     0.26   0.24   0.00    -0.21   0.24  -0.00    -0.12   0.21  -0.00
   5   6    -0.38   0.10  -0.00    -0.20  -0.48  -0.00     0.42  -0.22   0.00
   6   6     0.04  -0.29   0.00     0.31   0.05   0.00    -0.37   0.01  -0.00
   7   8     0.07  -0.04   0.00     0.09   0.15   0.00    -0.03   0.04  -0.00
   8  17    -0.01  -0.01  -0.00     0.01  -0.01   0.00    -0.01  -0.00  -0.00
   9   1     0.04  -0.24   0.00    -0.06  -0.22  -0.00     0.07   0.05   0.00
  10   1     0.28  -0.21   0.00    -0.08  -0.04  -0.00     0.11  -0.08   0.00
  11   1     0.16  -0.01   0.00    -0.24  -0.13  -0.00    -0.02  -0.07  -0.00
  12   1     0.11  -0.04   0.00    -0.22  -0.13  -0.00     0.05   0.07   0.00
  13   1     0.05   0.15   0.00     0.01   0.01  -0.00    -0.03  -0.10  -0.00
                     28                     29                     30
                        a                      a                      a 
 Frequencies --  1591.0827              3098.3691              3101.7979
 Red. masses --    11.6363                 1.7808                 1.8105
 Frc consts  --     0.0000                 0.0000                 0.0000
 IR Inten    --    72.9483                 9.1989                29.1417
 Raman Activ --     0.0000                 0.0000                 0.0000
 Depolar     --     0.0000                 0.0000                 0.0000
 Atom AN      X      Y      Z        X      Y      Z        X      Y      Z
   1   6    -0.14  -0.49  -0.00     0.08  -0.01   0.00    -0.22   0.02  -0.00
   2   6     0.08   0.20   0.00    -0.08  -0.11  -0.00     0.03   0.04   0.00
   3   6    -0.32  -0.27  -0.00    -0.09   0.19  -0.00    -0.05   0.12  -0.00
   4   6     0.11   0.43   0.00    -0.01   0.00  -0.00    -0.01   0.00  -0.00
   5   6    -0.09  -0.27  -0.00     0.00  -0.00   0.00     0.00  -0.00   0.00
   6   6     0.34   0.32   0.00    -0.01   0.02  -0.00     0.03  -0.07   0.00
   7   8     0.02   0.03   0.00    -0.00   0.00  -0.00    -0.00   0.00  -0.00
   8  17     0.00  -0.00   0.00     0.00  -0.00   0.00     0.00  -0.00   0.00
   9   1    -0.01   0.11  -0.00    -0.29   0.03  -0.00     0.77  -0.08   0.00
  10   1     0.04   0.04   0.00     0.29   0.41   0.00    -0.11  -0.16  -0.00
  11   1     0.08   0.01   0.00     0.32  -0.69   0.00     0.19  -0.41   0.00
  12   1    -0.11  -0.00  -0.00     0.03  -0.07   0.00    -0.11   0.26  -0.00
  13   1    -0.00  -0.00  -0.00     0.00  -0.00   0.00     0.00  -0.00   0.00
                     31                     32                     33
                        a                      a                      a 
 Frequencies --  3112.3265              3118.8933              3386.4357
 Red. masses --     1.8652                 1.9064                 1.8621
 Frc consts  --     0.0000                 0.0000                 0.0000
 IR Inten    --    52.0134                29.0477               141.9694
 Raman Activ --     0.0000                 0.0000                 0.0000
 Depolar     --     0.0000                 0.0000                 0.0000
 Atom AN      X      Y      Z        X      Y      Z        X      Y      Z
   1   6    -0.04   0.01  -0.00     0.14  -0.01   0.00    -0.00  -0.00  -0.00
   2   6    -0.11  -0.16  -0.00     0.07   0.11   0.00     0.00   0.00   0.00
   3   6     0.04  -0.09   0.00    -0.02   0.05  -0.00    -0.00  -0.00  -0.00
   4   6     0.00   0.00   0.00    -0.00   0.00  -0.00     0.00   0.00  -0.00
   5   6    -0.00  -0.00  -0.00    -0.00  -0.01  -0.00    -0.01  -0.01  -0.00
   6   6     0.07  -0.15   0.00     0.08  -0.19   0.00     0.00   0.00   0.00
   7   8    -0.00   0.00  -0.00    -0.00   0.00  -0.00    -0.23   0.06  -0.00
   8  17    -0.00  -0.00  -0.00     0.00  -0.00   0.00     0.00  -0.00   0.00
   9   1     0.15  -0.02   0.00    -0.46   0.05  -0.00     0.00  -0.00   0.00
  10   1     0.39   0.55   0.00    -0.24  -0.35  -0.00     0.00  -0.00   0.00
  11   1    -0.14   0.30  -0.00     0.07  -0.15   0.00    -0.00   0.00  -0.00
  12   1    -0.23   0.53  -0.00    -0.28   0.65  -0.00     0.00  -0.01   0.00
  13   1     0.00  -0.00   0.00     0.01  -0.00   0.00     0.95  -0.20   0.00
