      -----------------------------------------------------------      
     |                   =====================                   |     
     |                           x T B                           |     
     |                   =====================                   |     
     |                         S. Grimme                         |     
     |          Mulliken Center for Theoretical Chemistry        |     
     |                    University of Bonn                     |     
      -----------------------------------------------------------      

   * xtb version 6.7.1 (edcfbbe) compiled by 'albert@albert-system' on 2024-07-22

   xtb is free software: you can redistribute it and/or modify it under
   the terms of the GNU Lesser General Public License as published by
   the Free Software Foundation, either version 3 of the License, or
   (at your option) any later version.
   
   xtb is distributed in the hope that it will be useful,
   but WITHOUT ANY WARRANTY; without even the implied warranty of
   MERCHANTABILITY or FITNESS FOR A PARTICULAR PURPOSE.  See the
   GNU Lesser General Public License for more details.
   
   Cite this work as:
   * C. Bannwarth, E. Caldeweyher, S. Ehlert, A. Hansen, P. Pracht,
     J. Seibert, S. Spicher, S. Grimme, WIREs Comput. Mol. Sci., 2020, 11,
     e01493. DOI: 10.1002/wcms.1493
   
   for GFN2-xTB:
   * C. Bannwarth, S. Ehlert and S. Grimme., J. Chem. Theory Comput., 2019,
     15, 1652-1671. DOI: 10.1021/acs.jctc.8b01176
   for GFN1-xTB:
   * S. Grimme, C. Bannwarth, P. Shushkov, J. Chem. Theory Comput., 2017,
     13, 1989-2009. DOI: 10.1021/acs.jctc.7b00118
   for GFN0-xTB:
   * P. Pracht, E. Caldeweyher, S. Ehlert, S. Grimme, ChemRxiv, 2019, preprint.
     DOI: 10.26434/chemrxiv.8326202.v1
   for GFN-FF:
   * S. Spicher and S. Grimme, Angew. Chem. Int. Ed., 2020, 59, 15665-15673.
     DOI: 10.1002/anie.202004239
   
   for ALPB and GBSA implicit solvation:
   * S. Ehlert, M. Stahn, S. Spicher, S. Grimme, J. Chem. Theory Comput.,
     2021, 17, 4250-4261. DOI: 10.1021/acs.jctc.1c00471
   
   for ddCOSMO and CPCM-X implicit solvation:
   * M. Stahn, S. Ehlert, S. Grimme, J. Phys. Chem. A,
     2023, XX, XXXX-XXXX. DOI: 10.1021/acs.jpca.3c04382
   
   for DFT-D4:
   * E. Caldeweyher, C. Bannwarth and S. Grimme, J. Chem. Phys., 2017,
     147, 034112. DOI: 10.1063/1.4993215
   * E. Caldeweyher, S. Ehlert, A. Hansen, H. Neugebauer, S. Spicher,
     C. Bannwarth and S. Grimme, J. Chem. Phys., 2019, 150, 154122.
     DOI: 10.1063/1.5090222
   * E. Caldeweyher, J.-M. Mewes, S. Ehlert and S. Grimme, Phys. Chem. Chem. Phys.
     2020, 22, 8499-8512. DOI: 10.1039/D0CP00502A
   
   for sTDA-xTB:
   * S. Grimme and C. Bannwarth, J. Chem. Phys., 2016, 145, 054103.
     DOI: 10.1063/1.4959605
   
   in the mass-spec context:
   * V. Asgeirsson, C. Bauer and S. Grimme, Chem. Sci., 2017, 8, 4879.
     DOI: 10.1039/c7sc00601b
   * J. Koopman and S. Grimme, ACS Omega 2019, 4, 12, 15120-15133.
     DOI: 10.1021/acsomega.9b02011
   
   for metadynamics refer to:
   * S. Grimme, J. Chem. Theory Comput., 2019, 155, 2847-2862
     DOI: 10.1021/acs.jctc.9b00143
   
   for SPH calculations refer to:
   * S. Spicher and S. Grimme, J. Chem. Theory Comput., 2021, 17, 1701-1714
     DOI: 10.1021/acs.jctc.0c01306
   
   for ONIOM refer to:
   * C. Plett, A. Katbashev, S. Ehlert, S. Grimme, M. Bursch,
     Phys. Chem. Chem. Phys., 2023, 25, 17860-17868. DOI: 10.1039/D3CP02178E
   
   for DIPRO refer to:
   * J. Kohn, N. Gildemeister, S. Grimme, D. Fazzi, A. Hansen,
     J. Chem. Phys., 2023, just accepted.
   
   for PTB refer to:
   * S. Grimme, M. Mueller, A. Hansen, J. Chem. Phys., 2023, 158, 124111.
     DOI: 10.1063/5.0137838
   
   with help from (in alphabetical order)
   P. Atkinson, C. Bannwarth, F. Bohle, G. Brandenburg, E. Caldeweyher
   M. Checinski, S. Dohm, S. Ehlert, S. Ehrlich, I. Gerasimov, C. Hölzer
   A. Katbashev, J. Kohn, J. Koopman, C. Lavigne, S. Lehtola, F. März, M. Müller,
   F. Musil, H. Neugebauer, J. Pisarek, C. Plett, P. Pracht, F. Pultar,
   J. Seibert, P. Shushkov, S. Spicher, M. Stahn, M. Steiner, T. Strunk,
   J. Stückrath, T. Rose, and J. Unsleber
   
 * started run on 2025/04/03 at 13:55:03.673     
   ID    Z sym.   atoms
    1    6 C      1-6
    2    8 O      7
    3   17 Cl     8
    4    1 H      9-13

           -------------------------------------------------
          |                Calculation Setup                |
           -------------------------------------------------

          program call               : /srv/scratch/z5358697/.xtb/bin/xtb xtb_rrho.coord --gfn2 --ohess vtight --chrg 0 --enso --norestart -I rrho-xcontrol-inp --parallel 1 --alpb water
          hostname                   : k147
          coordinate file            : xtb_rrho.coord
          omp threads                :                     1


           -------------------------------------------------
          |                 G F N 2 - x T B                 |
           -------------------------------------------------

        Reference                      10.1021/acs.jctc.8b01176
      * Hamiltonian:
        H0-scaling (s, p, d)           1.850000    2.230000    2.230000
        zeta-weighting                 0.500000
      * Dispersion:
        s8                             2.700000
        a1                             0.520000
        a2                             5.000000
        s9                             5.000000
      * Repulsion:
        kExp                           1.500000    1.000000
        rExp                           1.000000
      * Coulomb:
        alpha                          2.000000
        third order                    shell-resolved
        anisotropic                    true
        a3                             3.000000
        a5                             4.000000
        cn-shift                       1.200000
        cn-exp                         4.000000
        max-rad                        5.000000

      * Solvation model:               ALPB
        Solvent                        water
        Parameter file                 internal GFN2-xTB/ALPB
        Dielectric constant                8.0200E+01
        Reference state                gsolv [1 M gas/solution]
        Free energy shift                  1.0808E-03 Eh       6.7819E-01 kcal/mol
        Temperature                        2.9815E+02 K
        Density                            1.0000E+00 kg/L
        Solvent mass                       1.8000E+01 g/mol
        Interaction kernel             P16
        Born radius scaling (c1)           1.4744E+00
        Born radii integrator          GBOBC
        Born offset                        0.0000E+00 a0       0.0000E+00 AA
        H-bond correction              true
        Ion screening                  false
        Surface tension                    1.0000E-05 Eh       1.5569E+01 dyn/cm
        Grid points                               974 per atom

          ...................................................
          :                      SETUP                      :
          :.................................................:
          :  # basis functions                  43          :
          :  # atomic orbitals                  42          :
          :  # shells                           22          :
          :  # electrons                        42          :
          :  max. iterations                   250          :
          :  Hamiltonian                  GFN2-xTB          :
          :  restarted?                      false          :
          :  GBSA solvation                   true          :
          :  PC potential                    false          :
          :  electronic temp.          300.0000000     K    :
          :  accuracy                    1.0000000          :
          :  -> integral cutoff          0.2500000E+02      :
          :  -> integral neglect         0.1000000E-07      :
          :  -> SCF convergence          0.1000000E-05 Eh   :
          :  -> wf. convergence          0.1000000E-03 e    :
          :  Broyden damping             0.4000000          :
          :  net charge                          0          :
          :  unpaired electrons                  0          :
          ...................................................

 iter      E             dE          RMSdq      gap      omega  full diag
   1    -24.2991443 -0.242991E+02  0.517E+00    4.24       0.0  T
   2    -24.3089236 -0.977932E-02  0.301E+00    4.17       1.0  T
   3    -24.3063604  0.256320E-02  0.776E-01    4.06       1.0  T
   4    -24.3105905 -0.423010E-02  0.267E-01    4.13       1.0  T
   5    -24.3108261 -0.235621E-03  0.157E-01    4.15       1.0  T
   6    -24.3108775 -0.513584E-04  0.112E-01    4.14       1.0  T
   7    -24.3109400 -0.625180E-04  0.575E-02    4.14       1.0  T
   8    -24.3109510 -0.110173E-04  0.314E-02    4.14       1.0  T
   9    -24.3109575 -0.646603E-05  0.981E-03    4.14       2.8  T
  10    -24.3109578 -0.299770E-06  0.653E-03    4.14       4.2  T
  11    -24.3109580 -0.162439E-06  0.345E-03    4.14       8.0  T
  12    -24.3109580 -0.455255E-07  0.253E-03    4.14      11.0  T
  13    -24.3109581 -0.414985E-07  0.534E-04    4.14      52.0  T
  14    -24.3109581 -0.671463E-09  0.264E-04    4.14     104.9  T

   *** convergence criteria satisfied after 14 iterations ***

         #    Occupation            Energy/Eh            Energy/eV
      -------------------------------------------------------------
         1        2.0000           -1.0688383             -29.0846
       ...           ...                  ...                  ...
        15        2.0000           -0.4778927             -13.0041
        16        2.0000           -0.4518388             -12.2952
        17        2.0000           -0.4513429             -12.2817
        18        2.0000           -0.4381247             -11.9220
        19        2.0000           -0.4289013             -11.6710
        20        2.0000           -0.4072388             -11.0815
        21        2.0000           -0.3891457             -10.5892 (HOMO)
        22                         -0.2370501              -6.4505 (LUMO)
        23                         -0.2267316              -6.1697
        24                         -0.1540712              -4.1925
        25                         -0.1067603              -2.9051
        26                          0.0021220               0.0577
       ...                                ...                  ...
        42                          0.6282563              17.0957
      -------------------------------------------------------------
                  HL-Gap            0.1520957 Eh            4.1387 eV
             Fermi-level           -0.3130979 Eh           -8.5198 eV

 SCC (total)                   0 d,  0 h,  0 min,  0.023 sec
 SCC setup                      ...        0 min,  0.001 sec (  3.088%)
 Dispersion                     ...        0 min,  0.000 sec (  0.300%)
 classical contributions        ...        0 min,  0.000 sec (  0.094%)
 integral evaluation            ...        0 min,  0.014 sec ( 60.251%)
 iterations                     ...        0 min,  0.005 sec ( 21.879%)
 molecular gradient             ...        0 min,  0.003 sec ( 13.755%)
 printout                       ...        0 min,  0.000 sec (  0.548%)

         :::::::::::::::::::::::::::::::::::::::::::::::::::::
         ::                     SUMMARY                     ::
         :::::::::::::::::::::::::::::::::::::::::::::::::::::
         :: total energy             -24.012752592474 Eh    ::
         :: total w/o Gsasa/hb       -24.008892923706 Eh    ::
         :: gradient norm              0.019518347537 Eh/a0 ::
         :: HOMO-LUMO gap              4.138734274380 eV    ::
         ::.................................................::
         :: SCC energy               -24.310939352687 Eh    ::
         :: -> isotropic ES            0.029370018660 Eh    ::
         :: -> anisotropic ES         -0.001972596494 Eh    ::
         :: -> anisotropic XC          0.007054960045 Eh    ::
         :: -> dispersion             -0.010919010830 Eh    ::
         :: -> Gsolv                  -0.007768439868 Eh    ::
         ::    -> Gelec               -0.003908771100 Eh    ::
         ::    -> Gsasa                0.000076313293 Eh    ::
         ::    -> Ghb                 -0.005016741759 Eh    ::
         ::    -> Gshift               0.001080759698 Eh    ::
         :: repulsion energy           0.298186760213 Eh    ::
         :: add. restraining           0.000000000000 Eh    ::
         :: total charge               0.000000000000 e     ::
         :::::::::::::::::::::::::::::::::::::::::::::::::::::

      ----------------------------------------------------------- 
     |                   =====================                   |
     |                        A N C O P T                        |
     |                   =====================                   |
     |               Approximate Normal Coordinate               |
     |                Rational Function Optimizer                |
      ----------------------------------------------------------- 
      ----------------------------------------------------------- 
     |                   =====================                   |
     |                        A N C O P T                        |
     |                   =====================                   |
     |               Approximate Normal Coordinate               |
     |                Rational Function Optimizer                |
      ----------------------------------------------------------- 

          ...................................................
          :                      SETUP                      :
          :.................................................:
          :   optimization level         verytight          :
          :   max. optcycles                   260          :
          :   ANC micro-cycles                  20          :
          :   degrees of freedom                33          :
          :.................................................:
          :   RF solver                   davidson          :
          :   write xtbopt.log                true          :
          :   linear?                        false          :
          :   energy convergence         0.1000000E-06 Eh   :
          :   grad. convergence          0.2000000E-03 Eh/α :
          :   maxmium RF displ.          1.0000000          :
          :   Hlow (freq-cutoff)         0.1000000E-01      :
          :   Hmax (freq-cutoff)         5.0000000          :
          :   S6 in model hess.         20.0000000          :
          ...................................................

generating ANC from exact Hessian ...
Using Lindh-Hessian (1995)
 Shifting diagonal of input Hessian by   2.289491399002171E-003
 Lowest  eigenvalues of input Hessian
    0.000000    0.000000    0.000000    0.000000    0.000000    0.000000
    0.010000    0.013446    0.022271    0.022888    0.029741    0.045249
    0.057855    0.060638    0.082504    0.090724    0.097695    0.099437
 Highest eigenvalues
    1.436799    1.590566    1.711140    1.861503    1.979691    2.047414
 

........................................................................
.............................. CYCLE    1 ..............................
........................................................................

 iter      E             dE          RMSdq      gap      omega  full diag
   1    -24.3109581 -0.243110E+02  0.107E-04    4.14       0.0  T
   2    -24.3109581 -0.494254E-10  0.633E-05    4.14     438.1  T
   3    -24.3109581 -0.145555E-10  0.422E-05    4.14     656.7  T
     SCC iter.                  ...        0 min,  0.001 sec
     gradient                   ...        0 min,  0.004 sec
 * total energy  :   -24.0127526 Eh     change       -0.1640075E-09 Eh
   gradient norm :     0.0195192 Eh/α   predicted     0.0000000E+00 (-100.00%)
   displ. norm   :     0.0750264 α      lambda       -0.9785492E-03
   maximum displ.:     0.0410775 α      in ANC's #18, #17, #5, ...

........................................................................
.............................. CYCLE    2 ..............................
........................................................................

 iter      E             dE          RMSdq      gap      omega  full diag
   1    -24.3227437 -0.243227E+02  0.105E-01    4.17       0.0  T
   2    -24.3227551 -0.114371E-04  0.620E-02    4.18       1.0  T
   3    -24.3227550  0.655148E-07  0.340E-02    4.18       1.0  T
   4    -24.3227594 -0.432369E-05  0.767E-03    4.18       3.6  T
   5    -24.3227595 -0.143965E-06  0.578E-03    4.18       4.8  T
   6    -24.3227596 -0.104402E-06  0.416E-03    4.18       6.7  T
   7    -24.3227597 -0.893674E-07  0.201E-03    4.18      13.8  T
   8    -24.3227597 -0.198153E-07  0.110E-03    4.18      25.3  T
   9    -24.3227597 -0.584243E-08  0.633E-04    4.18      43.8  T
  10    -24.3227597 -0.152524E-08  0.231E-04    4.18     120.0  T
     SCC iter.                  ...        0 min,  0.003 sec
     gradient                   ...        0 min,  0.003 sec
 * total energy  :   -24.0133453 Eh     change       -0.5926636E-03 Eh
   gradient norm :     0.0086420 Eh/α   predicted    -0.4920285E-03 ( -16.98%)
   displ. norm   :     0.0198576 α      lambda       -0.8908335E-04
   maximum displ.:     0.0099508 α      in ANC's #18, #7, #17, ...

........................................................................
.............................. CYCLE    3 ..............................
........................................................................

 iter      E             dE          RMSdq      gap      omega  full diag
   1    -24.3251185 -0.243251E+02  0.372E-02    4.17       0.0  T
   2    -24.3251229 -0.438197E-05  0.216E-02    4.18       1.3  T
   3    -24.3251240 -0.108861E-05  0.132E-02    4.18       2.1  T
   4    -24.3251243 -0.315201E-06  0.492E-03    4.18       5.6  T
   5    -24.3251244 -0.619956E-07  0.355E-03    4.18       7.8  T
   6    -24.3251244 -0.385525E-07  0.271E-03    4.18      10.2  T
   7    -24.3251244 -0.417884E-07  0.113E-03    4.18      24.6  T
   8    -24.3251244 -0.637978E-08  0.531E-04    4.18      52.3  T
   9    -24.3251244 -0.152935E-08  0.317E-04    4.18      87.5  T
     SCC iter.                  ...        0 min,  0.003 sec
     gradient                   ...        0 min,  0.003 sec
 * total energy  :   -24.0133972 Eh     change       -0.5195981E-04 Eh
   gradient norm :     0.0032763 Eh/α   predicted    -0.4455912E-04 ( -14.24%)
   displ. norm   :     0.0043345 α      lambda       -0.1026323E-04
   maximum displ.:     0.0022816 α      in ANC's #13, #30, #33, ...

........................................................................
.............................. CYCLE    4 ..............................
........................................................................

 iter      E             dE          RMSdq      gap      omega  full diag
   1    -24.3248912 -0.243249E+02  0.122E-02    4.17       0.0  T
   2    -24.3248919 -0.610523E-06  0.722E-03    4.17       3.8  T
   3    -24.3248920 -0.146903E-06  0.454E-03    4.17       6.1  T
   4    -24.3248920 -0.325590E-07  0.202E-03    4.17      13.7  T
   5    -24.3248920 -0.109491E-07  0.146E-03    4.17      19.0  T
   6    -24.3248921 -0.645939E-08  0.115E-03    4.17      24.1  T
   7    -24.3248921 -0.867788E-08  0.402E-04    4.17      69.0  T
   8    -24.3248921 -0.803620E-09  0.178E-04    4.17     156.2  T
     SCC iter.                  ...        0 min,  0.003 sec
     gradient                   ...        0 min,  0.003 sec
 * total energy  :   -24.0134037 Eh     change       -0.6498333E-05 Eh
   gradient norm :     0.0009660 Eh/α   predicted    -0.5130405E-05 ( -21.05%)
   displ. norm   :     0.0048789 α      lambda       -0.1750525E-05
   maximum displ.:     0.0026783 α      in ANC's #13, #5, #17, ...

........................................................................
.............................. CYCLE    5 ..............................
........................................................................

 iter      E             dE          RMSdq      gap      omega  full diag
   1    -24.3243962 -0.243244E+02  0.734E-03    4.17       0.0  T
   2    -24.3243963 -0.108357E-06  0.446E-03    4.17       6.2  T
   3    -24.3243963 -0.143391E-07  0.278E-03    4.17      10.0  T
   4    -24.3243963 -0.192306E-07  0.111E-03    4.17      25.0  T
   5    -24.3243964 -0.334705E-08  0.877E-04    4.17      31.6  T
   6    -24.3243964 -0.230611E-08  0.686E-04    4.17      40.4  T
     SCC iter.                  ...        0 min,  0.002 sec
     gradient                   ...        0 min,  0.003 sec
 * total energy  :   -24.0134046 Eh     change       -0.8725146E-06 Eh
   gradient norm :     0.0004727 Eh/α   predicted    -0.8736527E-06 (   0.13%)
   displ. norm   :     0.0009865 α      lambda       -0.2207065E-06
   maximum displ.:     0.0004614 α      in ANC's #20, #13, #30, ...

........................................................................
.............................. CYCLE    6 ..............................
........................................................................

 iter      E             dE          RMSdq      gap      omega  full diag
   1    -24.3245269 -0.243245E+02  0.233E-03    4.17       0.0  T
   2    -24.3245269 -0.178181E-07  0.139E-03    4.17      19.9  T
   3    -24.3245269 -0.347729E-08  0.868E-04    4.17      31.9  T
   4    -24.3245269 -0.114661E-08  0.313E-04    4.17      88.7  T
     SCC iter.                  ...        0 min,  0.001 sec
     gradient                   ...        0 min,  0.003 sec
 * total energy  :   -24.0134048 Eh     change       -0.1639657E-06 Eh
   gradient norm :     0.0000625 Eh/α   predicted    -0.1098658E-06 ( -32.99%)
   displ. norm   :     0.0002782 α      lambda       -0.5806208E-08
   maximum displ.:     0.0001987 α      in ANC's #5, #20, #18, ...

........................................................................
.............................. CYCLE    7 ..............................
........................................................................

 iter      E             dE          RMSdq      gap      omega  full diag
   1    -24.3245440 -0.243245E+02  0.365E-04    4.17       0.0  T
   2    -24.3245440 -0.402526E-09  0.255E-04    4.17     108.8  T
   3    -24.3245440 -0.126761E-09  0.159E-04    4.17     174.5  T
     SCC iter.                  ...        0 min,  0.001 sec
     gradient                   ...        0 min,  0.003 sec
 * total energy  :   -24.0134048 Eh     change       -0.5621327E-08 Eh
   gradient norm :     0.0000243 Eh/α   predicted    -0.3022837E-08 ( -46.23%)
   displ. norm   :     0.0001742 α      lambda        0.1037105E-08
   maximum displ.:     0.0001316 α      in ANC's #5, #7, #17, ...

   *** GEOMETRY OPTIMIZATION CONVERGED AFTER 7 ITERATIONS ***

------------------------------------------------------------------------
 total energy gain   :        -0.0006522 Eh       -0.4092 kcal/mol
 total RMSD          :         0.0252593 a0        0.0134 Å
 total power (kW/mol):        -0.2446081 (step)  -28.3829 (real)
------------------------------------------------------------------------

 ANCopt (total)                0 d,  0 h,  0 min,  0.060 sec
 optimizer setup                ...        0 min,  0.000 sec (  0.532%)
 model hessian                  ...        0 min,  0.001 sec (  1.715%)
 ANC generation                 ...        0 min,  0.000 sec (  0.383%)
 coordinate transformation      ...        0 min,  0.000 sec (  0.067%)
 single point calculation       ...        0 min,  0.052 sec ( 86.820%)
 optimization log               ...        0 min,  0.005 sec (  8.208%)
 hessian update                 ...        0 min,  0.000 sec (  0.059%)
 rational function              ...        0 min,  0.001 sec (  1.637%)

================
 final structure:
================
$coord
       -4.56418378938065       -0.14989344627804       -0.00036657299630      C
       -3.47990867016498       -2.53271517401083       -0.00029038324247      C
       -0.87586768264040       -2.77590814768041       -0.00012928566481      C
        0.61741421372596       -0.63312200721327       -0.00004609159484      C
       -0.43883744051881        1.78144308888677       -0.00012082585309      C
       -3.06399641169082        1.98547969514300       -0.00028342742231      C
        0.96012433743490        3.91253024143195       -0.00004407636217      O
        3.91722099668233       -0.93813873802796        0.00015263310129      Cl
       -6.59178192455338        0.04942469576215       -0.00049341787994      H
       -4.64728673422338       -4.20124005361041       -0.00035677716744      H
        0.00001763101274       -4.61597075650635       -0.00007044647890      H
       -3.87148435369924        3.85531509639459       -0.00034085141777      H
        2.74958911957758        3.49646274816331        0.00006822241513      H
$end
 
 Bond Distances (Angstroems)
 ---------------------------
C1-C2=1.3853         C1-C6=1.3810         C1-H9=1.0781         C2-C1=1.3853         C2-C3=1.3840         C2-H10=1.0776        
C3-C2=1.3840         C3-C4=1.3821         C3-H11=1.0784        C4-C3=1.3821         C4-C5=1.3946         C4-Cl8=1.7536        
C5-C4=1.3946         C5-C6=1.3934         C5-O7=1.3490         C6-C1=1.3810         C6-C5=1.3934         C6-H12=1.0778        
O7-C5=1.3490         O7-H13=0.9722        Cl8-C4=1.7536        H9-C1=1.0781         H10-C2=1.0776        H11-C3=1.0784        
H12-C6=1.0778        H13-O7=0.9722        
 C  H  Rav=1.0780 sigma=0.0003  Rmin=1.0776  Rmax=1.0784     4
 C  C  Rav=1.3867 sigma=0.0053  Rmin=1.3810  Rmax=1.3946     6
 O  H  Rav=0.9722 sigma=0.0000  Rmin=0.9722  Rmax=0.9722     1
 O  C  Rav=1.3490 sigma=0.0000  Rmin=1.3490  Rmax=1.3490     1
 Cl C  Rav=1.7536 sigma=0.0000  Rmin=1.7536  Rmax=1.7536     1
 
 selected bond angles (degree)
 --------------------
C6-C1-C2=120.44                H9-C1-C2=120.08                H9-C1-C6=119.48                C3-C2-C1=119.80                
H10-C2-C1=120.55               H10-C2-C3=119.64               C4-C3-C2=119.54                H11-C3-C2=120.79               
H11-C3-C4=119.67               C5-C4-C3=121.50                Cl8-C4-C3=119.59               Cl8-C4-C5=118.91               
C6-C5-C4=118.07                O7-C5-C4=123.09                O7-C5-C6=118.84                C5-C6-C1=120.65                
H12-C6-C1=121.55               H12-C6-C5=117.80               H13-O7-C5=110.19               
 
 selected dihedral angles (degree)
 ---------------------------------
C3-C2-C1-C6=  0.00            C3-C2-C1-H9=180.00            H10-C2-C1-C6=180.00           H10-C2-C1-H9=  0.00           
C4-C3-C2-C1=  0.00            C4-C3-C2-H10=180.00           H11-C3-C2-C1=180.00           H11-C3-C2-H10=  0.00          
C5-C4-C3-C2=  0.00            C5-C4-C3-H11=180.00           Cl8-C4-C3-C2=180.00           Cl8-C4-C3-H11=  0.00          
C6-C5-C4-C3=  0.00            C6-C5-C4-Cl8=180.00           O7-C5-C4-C3=180.00            O7-C5-C4-Cl8=  0.00           
C5-C6-C1-C2=  0.00            C5-C6-C1-H9=180.00            H12-C6-C1-C2=180.00           H12-C6-C1-H9=  0.00           
C1-C6-C5-C4=  0.00            C1-C6-C5-O7=180.00            H12-C6-C5-C4=180.00           H12-C6-C5-O7=  0.00           
H13-O7-C5-C4=  0.00           H13-O7-C5-C6=180.00           
           -------------------------------------------------
          |                Final Singlepoint                |
           -------------------------------------------------

          ...................................................
          :                      SETUP                      :
          :.................................................:
          :  # basis functions                  43          :
          :  # atomic orbitals                  42          :
          :  # shells                           22          :
          :  # electrons                        42          :
          :  max. iterations                   250          :
          :  Hamiltonian                  GFN2-xTB          :
          :  restarted?                      false          :
          :  GBSA solvation                   true          :
          :  PC potential                    false          :
          :  electronic temp.          300.0000000     K    :
          :  accuracy                    1.0000000          :
          :  -> integral cutoff          0.2500000E+02      :
          :  -> integral neglect         0.1000000E-07      :
          :  -> SCF convergence          0.1000000E-05 Eh   :
          :  -> wf. convergence          0.1000000E-03 e    :
          :  Broyden damping             0.4000000          :
          :  net charge                          0          :
          :  unpaired electrons                  0          :
          ...................................................

 iter      E             dE          RMSdq      gap      omega  full diag
   1    -24.3245440 -0.243245E+02  0.709E-05    4.17       0.0  T
   2    -24.3245440 -0.915179E-11  0.598E-05    4.17     463.9  T
   3    -24.3245440 -0.765255E-11  0.452E-05    4.17     613.4  T

   *** convergence criteria satisfied after 3 iterations ***

         #    Occupation            Energy/Eh            Energy/eV
      -------------------------------------------------------------
         1        2.0000           -1.0691440             -29.0929
       ...           ...                  ...                  ...
        15        2.0000           -0.4793636             -13.0441
        16        2.0000           -0.4522341             -12.3059
        17        2.0000           -0.4519669             -12.2986
        18        2.0000           -0.4374749             -11.9043
        19        2.0000           -0.4284029             -11.6574
        20        2.0000           -0.4074333             -11.0868
        21        2.0000           -0.3882736             -10.5655 (HOMO)
        22                         -0.2349199              -6.3925 (LUMO)
        23                         -0.2240225              -6.0960
        24                         -0.1509778              -4.1083
        25                         -0.1023872              -2.7861
        26                          0.0016386               0.0446
       ...                                ...                  ...
        42                          0.6517904              17.7361
      -------------------------------------------------------------
                  HL-Gap            0.1533537 Eh            4.1730 eV
             Fermi-level           -0.3115967 Eh           -8.4790 eV

 SCC (total)                   0 d,  0 h,  0 min,  0.006 sec
 SCC setup                      ...        0 min,  0.001 sec (  9.789%)
 Dispersion                     ...        0 min,  0.000 sec (  0.646%)
 classical contributions        ...        0 min,  0.000 sec (  0.183%)
 integral evaluation            ...        0 min,  0.001 sec ( 20.914%)
 iterations                     ...        0 min,  0.001 sec ( 17.219%)
 molecular gradient             ...        0 min,  0.003 sec ( 49.308%)
 printout                       ...        0 min,  0.000 sec (  1.691%)

         :::::::::::::::::::::::::::::::::::::::::::::::::::::
         ::                     SUMMARY                     ::
         :::::::::::::::::::::::::::::::::::::::::::::::::::::
         :: total energy             -24.013404756583 Eh    ::
         :: total w/o Gsasa/hb       -24.009561201351 Eh    ::
         :: gradient norm              0.000024521394 Eh/a0 ::
         :: HOMO-LUMO gap              4.172966601155 eV    ::
         ::.................................................::
         :: SCC energy               -24.324525628800 Eh    ::
         :: -> isotropic ES            0.028727922604 Eh    ::
         :: -> anisotropic ES         -0.001888225451 Eh    ::
         :: -> anisotropic XC          0.006449885654 Eh    ::
         :: -> dispersion             -0.010969870135 Eh    ::
         :: -> Gsolv                  -0.007613150620 Eh    ::
         ::    -> Gelec               -0.003769595387 Eh    ::
         ::    -> Gsasa                0.000077281305 Eh    ::
         ::    -> Ghb                 -0.005001596235 Eh    ::
         ::    -> Gshift               0.001080759698 Eh    ::
         :: repulsion energy           0.311120872216 Eh    ::
         :: add. restraining           0.000000000000 Eh    ::
         :: total charge               0.000000000000 e     ::
         :::::::::::::::::::::::::::::::::::::::::::::::::::::

           ------------------------------------------------- 
          |                Numerical Hessian                |
           ------------------------------------------------- 
step length          :   0.00500
SCC accuracy         :   0.30000
Hessian scale factor :   1.00000
frozen atoms in %    :   0.00000    0
RMS gradient         :   0.00002
estimated CPU  time      0.01 min
estimated wall time      0.01 min

writing file <hessian>.

 projected vibrational frequencies (cm⁻¹)
eigval :       -0.00    -0.00     0.00     0.00     0.00     0.00
eigval :      145.61   222.76   250.64   342.95   413.55   433.30
eigval :      462.24   511.86   530.19   656.81   657.60   781.64
eigval :      820.43   871.41   903.84   919.70  1009.03  1077.12
eigval :     1111.59  1149.17  1170.57  1242.14  1265.28  1325.76
eigval :     1427.35  1460.18  1570.04  1591.08  3098.37  3101.80
eigval :     3112.33  3118.89  3386.44
           -------------------------------------------------
          |                Property Printout                |
           -------------------------------------------------

    * Orbital Energies and Occupations

         #    Occupation            Energy/Eh            Energy/eV
      -------------------------------------------------------------
         1        2.0000           -1.0691440             -29.0929
       ...           ...                  ...                  ...
         9        2.0000           -0.5423192             -14.7573
        10        2.0000           -0.5346717             -14.5492
        11        2.0000           -0.5229786             -14.2310
        12        2.0000           -0.4988318             -13.5739
        13        2.0000           -0.4904643             -13.3462
        14        2.0000           -0.4889536             -13.3051
        15        2.0000           -0.4793636             -13.0441
        16        2.0000           -0.4522340             -12.3059
        17        2.0000           -0.4519668             -12.2986
        18        2.0000           -0.4374748             -11.9043
        19        2.0000           -0.4284028             -11.6574
        20        2.0000           -0.4074331             -11.0868
        21        2.0000           -0.3882735             -10.5655 (HOMO)
        22                         -0.2349197              -6.3925 (LUMO)
        23                         -0.2240224              -6.0960
        24                         -0.1509773              -4.1083
        25                         -0.1023871              -2.7861
        26                          0.0016386               0.0446
        27                          0.0060175               0.1637
        28                          0.0077018               0.2096
        29                          0.0214110               0.5826
        30                          0.0752077               2.0465
        31                          0.1208927               3.2897
        32                          0.1386680               3.7733
       ...                                ...                  ...
        42                          0.6517906              17.7361
      -------------------------------------------------------------
                  HL-Gap            0.1533539 Eh            4.1730 eV
             Fermi-level           -0.3115966 Eh           -8.4790 eV

     #   Z          covCN         q      C6AA      α(0)
     1   6 C        2.919    -0.037    28.920     8.819
     2   6 C        2.922    -0.046    29.132     8.851
     3   6 C        2.947    -0.043    29.079     8.844
     4   6 C        2.888     0.057    26.717     8.474
     5   6 C        2.872     0.145    24.834     8.169
     6   6 C        2.923    -0.061    29.505     8.908
     7   8 O        1.659    -0.423    21.306     6.231
     8  17 Cl       0.952    -0.228   106.350    15.777
     9   1 H        0.926     0.067     2.120     2.277
    10   1 H        0.926     0.064     2.154     2.295
    11   1 H        0.926     0.062     2.171     2.304
    12   1 H        0.926     0.074     2.046     2.237
    13   1 H        0.804     0.368     0.548     1.163

 Mol. C6AA /au·bohr⁶  :       2827.572967
 Mol. C8AA /au·bohr⁸  :      78740.482050
 Mol. α(0) /au        :         84.348777


Wiberg/Mayer (AO) data.
largest (>0.10) Wiberg bond orders for each atom

 ---------------------------------------------------------------------------
     #   Z sym  total        # sym  WBO       # sym  WBO       # sym  WBO
 ---------------------------------------------------------------------------
     1   6 C    3.989 --     6 C    1.457     2 C    1.427     9 H    0.967
     2   6 C    3.989 --     3 C    1.433     1 C    1.427    10 H    0.967
     3   6 C    3.987 --     2 C    1.433     4 C    1.420    11 H    0.966
                             6 C    0.107
     4   6 C    3.887 --     3 C    1.420     5 C    1.338     8 Cl   0.928
     5   6 C    3.947 --     6 C    1.355     4 C    1.338     7 O    1.102
     6   6 C    3.984 --     1 C    1.457     5 C    1.355    12 H    0.964
                             3 C    0.107
     7   8 O    2.114 --     5 C    1.102    13 H    0.835
     8  17 Cl   1.068 --     4 C    0.928
     9   1 H    0.995 --     1 C    0.967
    10   1 H    0.996 --     2 C    0.967
    11   1 H    0.996 --     3 C    0.966
    12   1 H    0.995 --     6 C    0.964
    13   1 H    0.865 --     7 O    0.835
 ---------------------------------------------------------------------------

Topologies differ in total number of bonds
Writing topology from bond orders to xtbtopo.mol

molecular dipole:
                 x           y           z       tot (Debye)
 q only:       -0.786      -0.081      -0.000
   full:       -0.312      -0.389      -0.000       1.267
molecular quadrupole (traceless):
                xx          xy          yy          xz          yz          zz
 q only:        1.922       3.916      -0.219       0.000       0.000      -1.702
  q+dip:        4.211       2.175       0.271       0.001       0.000      -4.482
   full:        3.954       2.391      -1.346       0.000       0.000      -2.608

           -------------------------------------------------
          |                Geometry Summary                 |
           -------------------------------------------------

      molecular mass/u    :      128.5564616
   center of mass at/Å    :       -0.0000494      -0.0000429      -0.0000467
  moments of inertia/u·Å² :        0.1688115E+03   0.3280728E+03   0.4968843E+03
rotational constants/cm⁻¹ :        0.9986068E-01   0.5138381E-01   0.3392667E-01

 * 13 selected distances

     #   Z          #   Z                                           value/Å
     1   6 C        2   6 C                                       1.3853424
     2   6 C        3   6 C                                       1.3839956
     3   6 C        4   6 C                                       1.3820975
     4   6 C        5   6 C                                       1.3946398
     1   6 C        6   6 C                                       1.3809783
     5   6 C        6   6 C                                       1.3933641
     5   6 C        7   8 O                                       1.3490000
     4   6 C        8  17 Cl                                      1.7536267 (max)
     1   6 C        9   1 H                                       1.0781306
     2   6 C       10   1 H                                       1.0775934
     3   6 C       11   1 H                                       1.0784063
     6   6 C       12   1 H                                       1.0777980
     7   8 O       13   1 H                                       0.9722034 (min)

 * 5 distinct bonds (by element types)

   Z      Z             #   av. dist./Å        max./Å        min./Å
   1 H    6 C           4     1.0779821     1.0784063     1.0775934
   6 C    6 C           6     1.3867363     1.3946398     1.3809783
   1 H    8 O           1     0.9722034     0.9722034     0.9722034
   6 C    8 O           1     1.3490000     1.3490000     1.3490000
   6 C   17 Cl          1     1.7536267     1.7536267     1.7536267

           -------------------------------------------------
          |               Frequency Printout                |
           -------------------------------------------------
 projected vibrational frequencies (cm⁻¹)
eigval :       -0.00    -0.00     0.00     0.00     0.00     0.00
eigval :      145.61   222.76   250.64   342.95   413.55   433.30
eigval :      462.24   511.86   530.19   656.81   657.60   781.64
eigval :      820.43   871.41   903.84   919.70  1009.03  1077.12
eigval :     1111.59  1149.17  1170.57  1242.14  1265.28  1325.76
eigval :     1427.35  1460.18  1570.04  1591.08  3098.37  3101.80
eigval :     3112.33  3118.89  3386.44
 reduced masses (amu)
   1: 15.68   2: 18.05   3: 20.63   4: 21.34   5: 21.57   6: 13.34   7: 15.16   8: 22.15
   9: 11.55  10: 22.82  11:  9.64  12:  2.32  13: 13.92  14: 10.37  15: 12.91  16: 11.49
  17: 13.59  18:  3.32  19: 12.05  20:  3.38  21:  3.81  22:  3.24  23: 11.38  24:  5.54
  25:  4.87  26:  3.36  27:  1.54  28:  5.37  29:  8.28  30: 11.46  31:  9.26  32:  9.97
  33: 11.48  34: 11.64  35:  1.78  36:  1.81  37:  1.87  38:  1.91  39:  1.86
 IR intensities (km·mol⁻¹)
   1:  0.29   2:  0.07   3:  0.02   4:  0.01   5:  0.10   6:  0.10   7:  0.03   8:  6.98
   9:  0.12  10:  2.04  11:  1.52  12:132.88  13: 12.86  14:  3.56  15:  4.19  16:  3.12
  17: 17.98  18: 47.92  19: 39.88  20:  1.49  21:  1.02  22:  0.16  23: 23.64  24: 33.94
  25:253.77  26:103.78  27:  1.13  28:103.54  29:119.92  30: 25.21  31:  4.85  32:223.75
  33:  7.62  34: 72.95  35:  9.20  36: 29.14  37: 52.01  38: 29.05  39:141.97
 Raman intensities (Ä⁴*amu⁻¹)
   1:  0.00   2:  0.00   3:  0.00   4:  0.00   5:  0.00   6:  0.00   7:  0.00   8:  0.00
   9:  0.00  10:  0.00  11:  0.00  12:  0.00  13:  0.00  14:  0.00  15:  0.00  16:  0.00
  17:  0.00  18:  0.00  19:  0.00  20:  0.00  21:  0.00  22:  0.00  23:  0.00  24:  0.00
  25:  0.00  26:  0.00  27:  0.00  28:  0.00  29:  0.00  30:  0.00  31:  0.00  32:  0.00
  33:  0.00  34:  0.00  35:  0.00  36:  0.00  37:  0.00  38:  0.00  39:  0.00
 output can be read by thermo (or use thermo option).
 writing <g98.out> molden fake output.
 recommended (thermochemical) frequency scaling factor: 1.0
           -------------------------------------------------
          |             Thermodynamic Functions             |
           -------------------------------------------------

Molecule has the following symmetry elements: (sigma) 
It seems to be the Cs point group
cs  symmetry found (for desy threshold:  0.10E+00) used in thermo

          ...................................................
          :                      SETUP                      :
          :.................................................:
          :  # frequencies                          33      :
          :  # imaginary freq.                       0      :
          :  linear?                             false      :
          :  only rotor calc.                    false      :
          :  symmetry                               cs      :
          :  rotational number                       1      :
          :  scaling factor                  1.0000000      :
          :  rotor cutoff                    0.0000000 cm⁻¹ :
          :  imag. cutoff                 -100.0000000 cm⁻¹ :
          :.................................................:

    mode    ω/cm⁻¹     T·S(HO)/kcal·mol⁻¹    T·S(FR)/kcal·mol⁻¹   T·S(vib)
   ------------------------------------------------------------------------
       1    145.61    -0.81361 (100.00%)    -0.73980 (  0.00%)    -0.81361
       2    222.76    -0.57738 (100.00%)    -0.61388 (  0.00%)    -0.57738
       3    250.64    -0.51463 (100.00%)    -0.57895 (  0.00%)    -0.51463
   ------------------------------------------------------------------------

   temp. (K)  partition function   enthalpy   heat capacity  entropy
                                   cal/mol     cal/K/mol   cal/K/mol   J/K/mol
 298.15  VIB   11.4                 2537.112     20.459     13.340
         ROT  0.401E+06              888.752      2.981     28.619
         INT  0.456E+07             3425.864     23.440     41.959
         TR   0.141E+28             1481.254      4.968     40.448
         TOT                        4907.1181    28.4082    82.4074   344.7924

       T/K    H(0)-H(T)+PV         H(T)/Eh          T*S/Eh         G(T)/Eh
   ------------------------------------------------------------------------
    298.15    0.781999E-02    0.992695E-01    0.391544E-01    0.601151E-01
   ------------------------------------------------------------------------

         :::::::::::::::::::::::::::::::::::::::::::::::::::::
         ::                  THERMODYNAMIC                  ::
         :::::::::::::::::::::::::::::::::::::::::::::::::::::
         :: total free energy         -23.953289662503 Eh   ::
         ::.................................................::
         :: total energy              -24.013404756564 Eh   ::
         :: zero point energy           0.091449502512 Eh   ::
         :: G(RRHO) w/o ZPVE           -0.031334408451 Eh   ::
         :: G(RRHO) contrib.            0.060115094061 Eh   ::
         :::::::::::::::::::::::::::::::::::::::::::::::::::::

optimized geometry written to: xtbopt.coord


           -------------------------------------------------
          | TOTAL ENERGY              -24.013404756564 Eh   |
          | TOTAL ENTHALPY            -23.914135263636 Eh   |
          | TOTAL FREE ENERGY         -23.953289662503 Eh   |
          | GRADIENT NORM               0.000024583060 Eh/α |
          | HOMO-LUMO GAP               4.172970745902 eV   |
           -------------------------------------------------

------------------------------------------------------------------------
 * finished run on 2025/04/03 at 13:55:04.423     
------------------------------------------------------------------------
 total:
 * wall-time:     0 d,  0 h,  0 min,  0.750 sec
 *  cpu-time:     0 d,  0 h,  0 min,  0.668 sec
 * ratio c/w:     0.891 speedup
 SCF:
 * wall-time:     0 d,  0 h,  0 min,  0.024 sec
 *  cpu-time:     0 d,  0 h,  0 min,  0.012 sec
 * ratio c/w:     0.513 speedup
 ANC optimizer:
 * wall-time:     0 d,  0 h,  0 min,  0.078 sec
 *  cpu-time:     0 d,  0 h,  0 min,  0.063 sec
 * ratio c/w:     0.818 speedup
 analytical hessian:
 * wall-time:     0 d,  0 h,  0 min,  0.591 sec
 *  cpu-time:     0 d,  0 h,  0 min,  0.581 sec
 * ratio c/w:     0.984 speedup

