13
 energy: -24.012752592638 gnorm: 0.019519190834 xtb: 6.7.1 (edcfbbe)
C           -2.41909703733232       -0.07755586059570       -0.00018965245922
C           -1.84678034295386       -1.34839912668218       -0.00015743779299
C           -0.46211628926444       -1.48168274115154       -0.00006521983667
C            0.33188994818804       -0.34266451542663       -0.00001476904524
C           -0.22871177200849        0.93883669778057       -0.00005621366840
C           -1.61891278884028        1.05723088079754       -0.00013927234049
O            0.51106393863901        2.08745104140892       -0.00002874788481
Cl           2.08688262061820       -0.49815551165422        0.00009946929989
H           -3.49824314860331        0.03381140763113       -0.00026160746419
H           -2.46958859522380       -2.23599390867220       -0.00020730371103
H            0.00226909394863       -2.46160275901348       -0.00004070736776
H           -2.05230663094694        2.05200136747831       -0.00017474500800
H            1.45636199129769        1.87119719683682        0.00000782792097
13
 energy: -24.013345256264 gnorm: 0.008642025814 xtb: 6.7.1 (edcfbbe)
C           -2.41553192008600       -0.07862098412904       -0.00019406062021
C           -1.84224404394940       -1.34064934562815       -0.00015754570445
C           -0.46337699790476       -1.47124625970242       -0.00006960677535
C            0.32745639419168       -0.33717375542159       -0.00002132942367
C           -0.23268202560849        0.93865571040307       -0.00006273485221
C           -1.62052574344098        1.05214987190032       -0.00014730760139
O            0.50887633951065        2.07459093926790       -0.00002424364511
Cl           2.07808169608899       -0.49500973984485        0.00009295361630
H           -3.48973509721711        0.02814713304822       -0.00025831579713
H           -2.46103186603272       -2.22436613351281       -0.00019580391757
H           -0.00014941696766       -2.44620259728434       -0.00003705272164
H           -2.05058397324797        2.04171631947313       -0.00017446368909
H            1.45415764218192        1.85248301016790        0.00002113177360
13
 energy: -24.013397216070 gnorm: 0.003276320155 xtb: 6.7.1 (edcfbbe)
C           -2.41507915321865       -0.07906380904596       -0.00019376447997
C           -1.84110228812989       -1.33930933602388       -0.00015439739152
C           -0.46337803798465       -1.46859753524089       -0.00006901060423
C            0.32664322637895       -0.33503945053547       -0.00002451579891
C           -0.23309369226874        0.94102699074538       -0.00006356641711
C           -1.62140935044187        1.05110594573484       -0.00014895510976
O            0.50798056430725        2.07089050031028       -0.00002145940655
Cl           2.07451493062712       -0.49603632922109        0.00008446314915
H           -3.48787517045753        0.02609922094477       -0.00026084195384
H           -2.45861853417317       -2.22216191237112       -0.00019073743083
H           -0.00035453957893       -2.44224446971009       -0.00003675440086
H           -2.04948570102920        2.03974779897545       -0.00017901617891
H            1.45396873348745        1.84805655417513        0.00003017666540
13
 energy: -24.013403714404 gnorm: 0.000966045982 xtb: 6.7.1 (edcfbbe)
C           -2.41523570406849       -0.07923463815602       -0.00019504948933
C           -1.84119151684399       -1.33974028675564       -0.00015419738636
C           -0.46334555537810       -1.46856787934384       -0.00006946887006
C            0.32664308521369       -0.33469591262738       -0.00002590917013
C           -0.23266208707994        0.94238850983222       -0.00006418049427
C           -1.62158353183008        1.05091734830585       -0.00015062107274
O            0.50800067150749        2.07035965384121       -0.00002063973657
Cl           2.07337369355375       -0.49634919664706        0.00008133015779
H           -3.48800976840640        0.02582899718358       -0.00026068683187
H           -2.45868067687821       -2.22264009888993       -0.00018721468063
H           -0.00013225730313       -2.44217034265610       -0.00003643322650
H           -2.04897700645110        2.03996883632400       -0.00018024928592
H            1.45451164148265        1.84840917832644        0.00003494072866
13
 energy: -24.013404586918 gnorm: 0.000472704961 xtb: 6.7.1 (edcfbbe)
C           -2.41533112303271       -0.07933992171819       -0.00019370146219
C           -1.84150712696061       -1.34036699667842       -0.00015341821470
C           -0.46343031884371       -1.46899708671317       -0.00006845580665
C            0.32672192094135       -0.33492949529305       -0.00002446101222
C           -0.23214382136049        0.94304603103386       -0.00006386921996
C           -1.62147142487312        1.05070185680586       -0.00014975821542
O            0.50815053615797        2.07044516871494       -0.00002319011373
Cl           2.07278665083381       -0.49639361256291        0.00008075410156
H           -3.48833474304131        0.02607678483278       -0.00026154182128
H           -2.45927016679439       -2.22337956046075       -0.00018875246747
H            0.00006779411852       -2.44276041919938       -0.00003743525351
H           -2.04864859228989        2.04031412172440       -0.00018051606093
H            1.45512140266272        1.85005729825136        0.00003596618858
13
 energy: -24.013404750884 gnorm: 0.000062460677 xtb: 6.7.1 (edcfbbe)
C           -2.41526599276092       -0.07931685684079       -0.00019491501737
C           -1.84148526728400       -1.34025486641031       -0.00015417513081
C           -0.46347628751232       -1.46895145368969       -0.00006983893340
C            0.32671011012030       -0.33502091883633       -0.00002673931255
C           -0.23223150469043        0.94272329274620       -0.00006475741110
C           -1.62141171376852        1.05067867969503       -0.00015056981058
O            0.50809742421030        2.07045583073797       -0.00002173287574
Cl           2.07294961544674       -0.49640077081538        0.00008148521284
H           -3.48823769208518        0.02614462138955       -0.00026023859811
H           -2.45924006029627       -2.22321297816414       -0.00018694887589
H            0.00001153657090       -2.44267630811522       -0.00003628705647
H           -2.04871949241980        2.04017174384980       -0.00018037911949
H            1.45501031198734        1.85013415319063        0.00003671757074
13
 energy: -24.013404756505 gnorm: 0.000024278627 xtb: 6.7.1 (edcfbbe)
C           -2.41526204771995       -0.07932019583428       -0.00019398207578
C           -1.84148836428026       -1.34025515179854       -0.00015366419434
C           -0.46348921742103       -1.46894733131658       -0.00006841502751
C            0.32672153159229       -0.33503373793937       -0.00002439062161
C           -0.23222277281421        0.94269908516218       -0.00006393828794
C           -1.62139707535992        1.05067060738328       -0.00014998333283
O            0.50807591900532        2.07042184074044       -0.00002332420640
Cl           2.07290408152087       -0.49644164083110        0.00008076995883
H           -3.48822077372580        0.02615442265322       -0.00026110549752
H           -2.45923823228978       -2.22320049390979       -0.00018879834638
H            0.00000932993015       -2.44266653054473       -0.00003727867122
H           -2.04870129235095        2.04014488986807       -0.00018037080259
H            1.45501990143140        1.85024840510451        0.00003610174736
