      -----------------------------------------------------------      
     |                   =====================                   |     
     |                           x T B                           |     
     |                   =====================                   |     
     |                         S. Grimme                         |     
     |          Mulliken Center for Theoretical Chemistry        |     
     |                    University of Bonn                     |     
      -----------------------------------------------------------      

   * xtb version 6.7.1 (edcfbbe) compiled by 'albert@albert-system' on 2024-07-22

   xtb is free software: you can redistribute it and/or modify it under
   the terms of the GNU Lesser General Public License as published by
   the Free Software Foundation, either version 3 of the License, or
   (at your option) any later version.
   
   xtb is distributed in the hope that it will be useful,
   but WITHOUT ANY WARRANTY; without even the implied warranty of
   MERCHANTABILITY or FITNESS FOR A PARTICULAR PURPOSE.  See the
   GNU Lesser General Public License for more details.
   
   Cite this work as:
   * C. Bannwarth, E. Caldeweyher, S. Ehlert, A. Hansen, P. Pracht,
     J. Seibert, S. Spicher, S. Grimme, WIREs Comput. Mol. Sci., 2020, 11,
     e01493. DOI: 10.1002/wcms.1493
   
   for GFN2-xTB:
   * C. Bannwarth, S. Ehlert and S. Grimme., J. Chem. Theory Comput., 2019,
     15, 1652-1671. DOI: 10.1021/acs.jctc.8b01176
   for GFN1-xTB:
   * S. Grimme, C. Bannwarth, P. Shushkov, J. Chem. Theory Comput., 2017,
     13, 1989-2009. DOI: 10.1021/acs.jctc.7b00118
   for GFN0-xTB:
   * P. Pracht, E. Caldeweyher, S. Ehlert, S. Grimme, ChemRxiv, 2019, preprint.
     DOI: 10.26434/chemrxiv.8326202.v1
   for GFN-FF:
   * S. Spicher and S. Grimme, Angew. Chem. Int. Ed., 2020, 59, 15665-15673.
     DOI: 10.1002/anie.202004239
   
   for ALPB and GBSA implicit solvation:
   * S. Ehlert, M. Stahn, S. Spicher, S. Grimme, J. Chem. Theory Comput.,
     2021, 17, 4250-4261. DOI: 10.1021/acs.jctc.1c00471
   
   for ddCOSMO and CPCM-X implicit solvation:
   * M. Stahn, S. Ehlert, S. Grimme, J. Phys. Chem. A,
     2023, XX, XXXX-XXXX. DOI: 10.1021/acs.jpca.3c04382
   
   for DFT-D4:
   * E. Caldeweyher, C. Bannwarth and S. Grimme, J. Chem. Phys., 2017,
     147, 034112. DOI: 10.1063/1.4993215
   * E. Caldeweyher, S. Ehlert, A. Hansen, H. Neugebauer, S. Spicher,
     C. Bannwarth and S. Grimme, J. Chem. Phys., 2019, 150, 154122.
     DOI: 10.1063/1.5090222
   * E. Caldeweyher, J.-M. Mewes, S. Ehlert and S. Grimme, Phys. Chem. Chem. Phys.
     2020, 22, 8499-8512. DOI: 10.1039/D0CP00502A
   
   for sTDA-xTB:
   * S. Grimme and C. Bannwarth, J. Chem. Phys., 2016, 145, 054103.
     DOI: 10.1063/1.4959605
   
   in the mass-spec context:
   * V. Asgeirsson, C. Bauer and S. Grimme, Chem. Sci., 2017, 8, 4879.
     DOI: 10.1039/c7sc00601b
   * J. Koopman and S. Grimme, ACS Omega 2019, 4, 12, 15120-15133.
     DOI: 10.1021/acsomega.9b02011
   
   for metadynamics refer to:
   * S. Grimme, J. Chem. Theory Comput., 2019, 155, 2847-2862
     DOI: 10.1021/acs.jctc.9b00143
   
   for SPH calculations refer to:
   * S. Spicher and S. Grimme, J. Chem. Theory Comput., 2021, 17, 1701-1714
     DOI: 10.1021/acs.jctc.0c01306
   
   for ONIOM refer to:
   * C. Plett, A. Katbashev, S. Ehlert, S. Grimme, M. Bursch,
     Phys. Chem. Chem. Phys., 2023, 25, 17860-17868. DOI: 10.1039/D3CP02178E
   
   for DIPRO refer to:
   * J. Kohn, N. Gildemeister, S. Grimme, D. Fazzi, A. Hansen,
     J. Chem. Phys., 2023, just accepted.
   
   for PTB refer to:
   * S. Grimme, M. Mueller, A. Hansen, J. Chem. Phys., 2023, 158, 124111.
     DOI: 10.1063/5.0137838
   
   with help from (in alphabetical order)
   P. Atkinson, C. Bannwarth, F. Bohle, G. Brandenburg, E. Caldeweyher
   M. Checinski, S. Dohm, S. Ehlert, S. Ehrlich, I. Gerasimov, C. Hölzer
   A. Katbashev, J. Kohn, J. Koopman, C. Lavigne, S. Lehtola, F. März, M. Müller,
   F. Musil, H. Neugebauer, J. Pisarek, C. Plett, P. Pracht, F. Pultar,
   J. Seibert, P. Shushkov, S. Spicher, M. Stahn, M. Steiner, T. Strunk,
   J. Stückrath, T. Rose, and J. Unsleber
   
 * started run on 2025/04/03 at 13:51:48.079     
   ID    Z sym.   atoms
    1    6 C      1-6
    2    8 O      7
    3   17 Cl     8
    4    1 H      9-13

           -------------------------------------------------
          |                Calculation Setup                |
           -------------------------------------------------

          program call               : /srv/scratch/z5358697/.xtb/bin/xtb solv.coord --gfn2 --sp --chrg 0 --norestart --parallel 1 --alpb water reference -I xtb_sp-xcontrol-inp
          hostname                   : k147
          coordinate file            : solv.coord
          omp threads                :                     1


           -------------------------------------------------
          |                 G F N 2 - x T B                 |
           -------------------------------------------------

        Reference                      10.1021/acs.jctc.8b01176
      * Hamiltonian:
        H0-scaling (s, p, d)           1.850000    2.230000    2.230000
        zeta-weighting                 0.500000
      * Dispersion:
        s8                             2.700000
        a1                             0.520000
        a2                             5.000000
        s9                             5.000000
      * Repulsion:
        kExp                           1.500000    1.000000
        rExp                           1.000000
      * Coulomb:
        alpha                          2.000000
        third order                    shell-resolved
        anisotropic                    true
        a3                             3.000000
        a5                             4.000000
        cn-shift                       1.200000
        cn-exp                         4.000000
        max-rad                        5.000000

      * Solvation model:               ALPB
        Solvent                        water
        Parameter file                 internal GFN2-xTB/ALPB
        Dielectric constant                8.0200E+01
        Reference state                gsolv=reference [X=1]
        Free energy shift                  2.8945E-03 Eh       1.8164E+00 kcal/mol
        Temperature                        2.9815E+02 K
        Density                            1.0000E+00 kg/L
        Solvent mass                       1.8000E+01 g/mol
        Interaction kernel             P16
        Born radius scaling (c1)           1.4744E+00
        Born radii integrator          GBOBC
        Born offset                        0.0000E+00 a0       0.0000E+00 AA
        H-bond correction              true
        Ion screening                  false
        Surface tension                    1.0000E-05 Eh       1.5569E+01 dyn/cm
        Grid points                               974 per atom

          ...................................................
          :                      SETUP                      :
          :.................................................:
          :  # basis functions                  43          :
          :  # atomic orbitals                  42          :
          :  # shells                           22          :
          :  # electrons                        42          :
          :  max. iterations                   250          :
          :  Hamiltonian                  GFN2-xTB          :
          :  restarted?                      false          :
          :  GBSA solvation                   true          :
          :  PC potential                    false          :
          :  electronic temp.          300.0000000     K    :
          :  accuracy                    1.0000000          :
          :  -> integral cutoff          0.2500000E+02      :
          :  -> integral neglect         0.1000000E-07      :
          :  -> SCF convergence          0.1000000E-05 Eh   :
          :  -> wf. convergence          0.1000000E-03 e    :
          :  Broyden damping             0.4000000          :
          :  net charge                          0          :
          :  unpaired electrons                  0          :
          ...................................................

 iter      E             dE          RMSdq      gap      omega  full diag
   1    -24.3111013 -0.243111E+02  0.509E+00    4.26       0.0  T
   2    -24.3206996 -0.959828E-02  0.297E+00    4.20       1.0  T
   3    -24.3183573  0.234233E-02  0.770E-01    4.09       1.0  T
   4    -24.3223856 -0.402834E-02  0.264E-01    4.17       1.0  T
   5    -24.3226011 -0.215539E-03  0.158E-01    4.19       1.0  T
   6    -24.3226545 -0.533682E-04  0.112E-01    4.17       1.0  T
   7    -24.3227165 -0.620044E-04  0.562E-02    4.17       1.0  T
   8    -24.3227270 -0.104494E-04  0.294E-02    4.18       1.0  T
   9    -24.3227327 -0.574171E-05  0.901E-03    4.17       3.1  T
  10    -24.3227329 -0.227351E-06  0.608E-03    4.17       4.6  T
  11    -24.3227331 -0.132773E-06  0.326E-03    4.17       8.5  T
  12    -24.3227331 -0.402654E-07  0.235E-03    4.17      11.8  T
  13    -24.3227331 -0.356163E-07  0.744E-04    4.17      37.3  T
  14    -24.3227331 -0.268741E-08  0.241E-04    4.17     114.9  T

   *** convergence criteria satisfied after 14 iterations ***

         #    Occupation            Energy/Eh            Energy/eV
      -------------------------------------------------------------
         1        2.0000           -1.0691439             -29.0929
       ...           ...                  ...                  ...
        15        2.0000           -0.4793581             -13.0440
        16        2.0000           -0.4522363             -12.3060
        17        2.0000           -0.4519654             -12.2986
        18        2.0000           -0.4374820             -11.9045
        19        2.0000           -0.4284025             -11.6574
        20        2.0000           -0.4074365             -11.0869
        21        2.0000           -0.3882744             -10.5655 (HOMO)
        22                         -0.2349227              -6.3926 (LUMO)
        23                         -0.2240247              -6.0960
        24                         -0.1510001              -4.1089
        25                         -0.1023896              -2.7862
        26                          0.0016350               0.0445
       ...                                ...                  ...
        42                          0.6517813              17.7359
      -------------------------------------------------------------
                  HL-Gap            0.1533517 Eh            4.1729 eV
             Fermi-level           -0.3115985 Eh           -8.4790 eV

 SCC (total)                   0 d,  0 h,  0 min,  0.023 sec
 SCC setup                      ...        0 min,  0.001 sec (  3.064%)
 Dispersion                     ...        0 min,  0.000 sec (  0.282%)
 classical contributions        ...        0 min,  0.000 sec (  0.073%)
 integral evaluation            ...        0 min,  0.014 sec ( 60.904%)
 iterations                     ...        0 min,  0.005 sec ( 21.495%)
 molecular gradient             ...        0 min,  0.003 sec ( 13.618%)
 printout                       ...        0 min,  0.000 sec (  0.500%)

         :::::::::::::::::::::::::::::::::::::::::::::::::::::
         ::                     SUMMARY                     ::
         :::::::::::::::::::::::::::::::::::::::::::::::::::::
         :: total energy             -24.011590918866 Eh    ::
         :: total w/o Gsasa/hb       -24.009561481667 Eh    ::
         :: gradient norm              0.000136387309 Eh/a0 ::
         :: HOMO-LUMO gap              4.172910857119 eV    ::
         ::.................................................::
         :: SCC energy               -24.322714806670 Eh    ::
         :: -> isotropic ES            0.028730525079 Eh    ::
         :: -> anisotropic ES         -0.001889227416 Eh    ::
         :: -> anisotropic XC          0.006449265982 Eh    ::
         :: -> dispersion             -0.010969754528 Eh    ::
         :: -> Gsolv                  -0.005798955247 Eh    ::
         ::    -> Gelec               -0.003769518048 Eh    ::
         ::    -> Gsasa                0.000077280137 Eh    ::
         ::    -> Ghb                 -0.005001266497 Eh    ::
         ::    -> Gshift               0.002894549160 Eh    ::
         :: repulsion energy           0.311123887804 Eh    ::
         :: add. restraining           0.000000000000 Eh    ::
         :: total charge               0.000000000000 e     ::
         :::::::::::::::::::::::::::::::::::::::::::::::::::::

           -------------------------------------------------
          |                Property Printout                |
           -------------------------------------------------

    * Orbital Energies and Occupations

         #    Occupation            Energy/Eh            Energy/eV
      -------------------------------------------------------------
         1        2.0000           -1.0691439             -29.0929
       ...           ...                  ...                  ...
         9        2.0000           -0.5423210             -14.7573
        10        2.0000           -0.5346637             -14.5489
        11        2.0000           -0.5229758             -14.2309
        12        2.0000           -0.4988335             -13.5739
        13        2.0000           -0.4904657             -13.3463
        14        2.0000           -0.4889520             -13.3051
        15        2.0000           -0.4793581             -13.0440
        16        2.0000           -0.4522363             -12.3060
        17        2.0000           -0.4519654             -12.2986
        18        2.0000           -0.4374820             -11.9045
        19        2.0000           -0.4284025             -11.6574
        20        2.0000           -0.4074365             -11.0869
        21        2.0000           -0.3882744             -10.5655 (HOMO)
        22                         -0.2349227              -6.3926 (LUMO)
        23                         -0.2240247              -6.0960
        24                         -0.1510001              -4.1089
        25                         -0.1023896              -2.7862
        26                          0.0016350               0.0445
        27                          0.0060130               0.1636
        28                          0.0076995               0.2095
        29                          0.0214058               0.5825
        30                          0.0751938               2.0461
        31                          0.1208655               3.2889
        32                          0.1387298               3.7750
       ...                                ...                  ...
        42                          0.6517813              17.7359
      -------------------------------------------------------------
                  HL-Gap            0.1533517 Eh            4.1729 eV
             Fermi-level           -0.3115985 Eh           -8.4790 eV

     #   Z          covCN         q      C6AA      α(0)
     1   6 C        2.919    -0.037    28.920     8.819
     2   6 C        2.922    -0.046    29.132     8.851
     3   6 C        2.947    -0.043    29.080     8.845
     4   6 C        2.888     0.057    26.717     8.474
     5   6 C        2.872     0.145    24.834     8.169
     6   6 C        2.923    -0.060    29.504     8.908
     7   8 O        1.659    -0.423    21.307     6.231
     8  17 Cl       0.952    -0.228   106.349    15.777
     9   1 H        0.926     0.067     2.120     2.277
    10   1 H        0.926     0.064     2.154     2.295
    11   1 H        0.926     0.062     2.170     2.304
    12   1 H        0.926     0.074     2.046     2.237
    13   1 H        0.804     0.368     0.548     1.163

 Mol. C6AA /au·bohr⁶  :       2827.567031
 Mol. C8AA /au·bohr⁸  :      78740.389538
 Mol. α(0) /au        :         84.348671


Wiberg/Mayer (AO) data.
largest (>0.10) Wiberg bond orders for each atom

 ---------------------------------------------------------------------------
     #   Z sym  total        # sym  WBO       # sym  WBO       # sym  WBO
 ---------------------------------------------------------------------------
     1   6 C    3.989 --     6 C    1.457     2 C    1.427     9 H    0.967
     2   6 C    3.989 --     3 C    1.433     1 C    1.427    10 H    0.967
     3   6 C    3.987 --     2 C    1.433     4 C    1.420    11 H    0.966
                             6 C    0.107
     4   6 C    3.887 --     3 C    1.420     5 C    1.338     8 Cl   0.928
     5   6 C    3.947 --     6 C    1.355     4 C    1.338     7 O    1.102
     6   6 C    3.984 --     1 C    1.457     5 C    1.355    12 H    0.964
                             3 C    0.107
     7   8 O    2.114 --     5 C    1.102    13 H    0.835
     8  17 Cl   1.068 --     4 C    0.928
     9   1 H    0.995 --     1 C    0.967
    10   1 H    0.996 --     2 C    0.967
    11   1 H    0.996 --     3 C    0.966
    12   1 H    0.995 --     6 C    0.964
    13   1 H    0.865 --     7 O    0.835
 ---------------------------------------------------------------------------

Topologies differ in total number of bonds
Writing topology from bond orders to xtbtopo.mol

molecular dipole:
                 x           y           z       tot (Debye)
 q only:       -0.787      -0.081      -0.000
   full:       -0.312      -0.389      -0.000       1.267
molecular quadrupole (traceless):
                xx          xy          yy          xz          yz          zz
 q only:        1.921       3.915      -0.219       0.001      -0.000      -1.702
  q+dip:        4.213       2.175       0.269       0.002       0.000      -4.483
   full:        3.956       2.390      -1.347       0.002       0.000      -2.609


           -------------------------------------------------
          | TOTAL ENERGY              -24.011590918866 Eh   |
          | GRADIENT NORM               0.000136387309 Eh/α |
          | HOMO-LUMO GAP               4.172910857119 eV   |
           -------------------------------------------------

------------------------------------------------------------------------
 * finished run on 2025/04/03 at 13:51:48.137     
------------------------------------------------------------------------
 total:
 * wall-time:     0 d,  0 h,  0 min,  0.058 sec
 *  cpu-time:     0 d,  0 h,  0 min,  0.020 sec
 * ratio c/w:     0.338 speedup
 SCF:
 * wall-time:     0 d,  0 h,  0 min,  0.024 sec
 *  cpu-time:     0 d,  0 h,  0 min,  0.012 sec
 * ratio c/w:     0.504 speedup

