
                                 *****************
                                 * O   R   C   A *
                                 *****************

                                            #,                                       
                                            ###                                      
                                            ####                                     
                                            #####                                    
                                            ######                                   
                                           ########,                                 
                                     ,,################,,,,,                         
                               ,,#################################,,                 
                          ,,##########################################,,             
                       ,#########################################, ''#####,          
                    ,#############################################,,   '####,        
                  ,##################################################,,,,####,       
                ,###########''''           ''''###############################       
              ,#####''   ,,,,##########,,,,          '''####'''          '####       
            ,##' ,,,,###########################,,,                        '##       
           ' ,,###''''                  '''############,,,                           
         ,,##''                                '''############,,,,        ,,,,,,###''
      ,#''                                            '''#######################'''  
     '                                                          ''''####''''         
             ,#######,   #######,   ,#######,      ##                                
            ,#'     '#,  ##    ##  ,#'     '#,    #''#        ,####,   ,####,        
            ##       ##  ##   ,#'  ##            #'  '#       #'       #'  '#        
            ##       ##  #######   ##           ,######,      #####,   #    #        
            '#,     ,#'  ##    ##  '#,     ,#' ,#      #,     #,   #   #,  ,#        
             '#######'   ##     ##  '#######'  #'      '#     '####' # '####'        



                #########################################################
                #                        -***-                          #
                #          Department of theory and spectroscopy        #
                #                                                       #
                #                      Frank Neese                      #
                #                                                       #
                #     Directorship, Architecture, Infrastructure        #
                #                    SHARK, DRIVERS                     #
                #        Core code/Algorithms in most modules           #
                #                                                       #
                #        Max Planck Institute fuer Kohlenforschung      #
                #                Kaiser Wilhelm Platz 1                 #
                #                 D-45470 Muelheim/Ruhr                 #
                #                      Germany                          #
                #                                                       #
                #                  All rights reserved                  #
                #                        -***-                          #
                #########################################################


                         Program Version 6.0.0  -   RELEASE  -


 With contributions from (in alphabetic order):
   Daniel Aravena         : Magnetic Suceptibility
   Michael Atanasov       : Ab Initio Ligand Field Theory (pilot matlab implementation)
   Alexander A. Auer      : GIAO ZORA, VPT2 properties, NMR spectrum
   Ute Becker             : All parallelization in ORCA, NUMFREQ, NUMCALC
   Giovanni Bistoni       : ED, misc. LED, open-shell LED, HFLD
   Martin Brehm           : Molecular dynamics
   Dmytro Bykov           : pre 5.0 version of the SCF Hessian
   Marcos Casanova-Páez   : Triplet and SCS-CIS(D). UHF-(DLPNO)-IP/EA/STEOM-CCSD. UHF-CVS-IP/STEOM-CCSD
   Vijay G. Chilkuri      : MRCI spin determinant printing, contributions to CSF-ICE
   Pauline Colinet        : FMM embedding
   Dipayan Datta          : RHF DLPNO-CCSD density
   Achintya Kumar Dutta   : EOM-CC, STEOM-CC
   Nicolas Foglia         : Exact transition moments, OPA infrastructure, MCD improvements
   Dmitry Ganyushin       : Spin-Orbit,Spin-Spin,Magnetic field MRCI
   Miquel Garcia          : C-PCM and meta-GGA Hessian, CCSD/C-PCM, Gaussian charge scheme
   Tiago L. C. Gouveia    : GS-ROHF, GS-ROCIS
   Yang Guo               : DLPNO-NEVPT2, F12-NEVPT2, CIM, IAO-localization
   Andreas Hansen         : Spin unrestricted coupled pair/coupled cluster methods
   Ingolf Harden          : AUTO-CI MPn and infrastructure 
   Benjamin Helmich-Paris : MC-RPA, TRAH-(SCF,CASSCF), AVAS, COSX integrals, SCF dyn. polar.
   Lee Huntington         : MR-EOM, pCC
   Robert Izsak           : Overlap fitted RIJCOSX, COSX-SCS-MP3, EOM
   Riya Kayal             : Wick's Theorem for AUTO-CI, AUTO-CI UHF-CCSDT
   Emily Kempfer          : AUTO-CI, RHF CISDT and CCSDT
   Christian Kollmar      : KDIIS, OOCD, Brueckner-CCSD(T), CCSD density, CASPT2, CASPT2-K, improved NEVPT2
   Axel Koslowski         : Symmetry handling
   Simone Kossmann        : Meta GGA functionals, TD-DFT gradient, OOMP2, (MP2 Hessian; deprecated post 5.0)
   Lucas Lang             : DCDCAS
   Marvin Lechner         : AUTO-CI (C++ implementation), FIC-MRCC
   Spencer Leger          : CASSCF response
   Dagmar Lenk            : GEPOL surface, SMD, ORCA-2-JSON
   Dimitrios Liakos       : Extrapolation schemes; Compound Job, initial MDCI parallelization
   Dimitrios Manganas     : Further ROCIS development; embedding schemes. LFT, Crystal Embedding
   Dimitrios Pantazis     : SARC Basis sets
   Anastasios Papadopoulos: AUTO-CI, single reference methods and gradients
   Taras Petrenko         : pre 6.0 DFT Hessian and TD-DFT gradient, (ASA, deprecated), ECA, 1-Electron XAS/XES, NRVS
   Peter Pinski           : DLPNO-MP2, DLPNO-MP2 Gradient
   Christoph Reimann      : Effective Core Potentials
   Marius Retegan         : Local ZFS, SOC
   Christoph Riplinger    : Optimizer, TS searches, QM/MM, DLPNO-CCSD(T), (RO)-DLPNO pert. Triples
   Michael Roemelt        : Original ROCIS implementation
   Masaaki Saitow         : Open-shell DLPNO-CCSD energy and density
   Barbara Sandhoefer     : DKH picture change effects
   Kantharuban Sivalingam : CASSCF convergence/infrastructure, NEVPT2 and variants, FIC-MRCI
   Bernardo de Souza      : ESD, SOC TD-DFT
   Georgi Stoychev        : AutoAux, RI-MP2 NMR, DLPNO-MP2 response, X2C
   Van Anh Tran           : RI-MP2 g-tensors
   Willem Van den Heuvel  : Paramagnetic NMR
   Zikuan Wang            : NOTCH, Electric field optimization 
   Frank Wennmohs         : Technical directorship and infrastructure
   Hang Xu                : AUTO-CI-Response properties 


 We gratefully acknowledge several colleagues who have allowed us to
 interface, adapt or use parts of their codes:
   Stefan Grimme, W. Hujo, H. Kruse, P. Pracht,  : VdW corrections, initial TS optimization,
                  C. Bannwarth, S. Ehlert,         DFT functionals, gCP, sTDA/sTD-DF
                  L. Wittmann, M. Mueller
   Ed Valeev, F. Pavosevic, A. Kumar             : LibInt (2-el integral package), F12 methods
   Garnet Chan, S. Sharma, J. Yang, R. Olivares  : DMRG
   Ulf Ekstrom                                   : XCFun DFT Library
   Mihaly Kallay                                 : mrcc  (arbitrary order and MRCC methods)
   Frank Weinhold                                : gennbo (NPA and NBO analysis)
   Simon Mueller                                 : openCOSMO-RS
   Christopher J. Cramer and Donald G. Truhlar   : smd solvation model
   Lars Goerigk                                  : TD-DFT with DH, B97 family of functionals
   V. Asgeirsson, H. Jonsson                     : NEB implementation
   FAccTs GmbH                                   : IRC, NEB, NEB-TS, DLPNO-Multilevel, CI-OPT
                                                   MM, QMMM, 2- and 3-layer-ONIOM, Crystal-QMMM,
                                                   LR-CPCM, SF, NACMEs, symmetry and pop. for TD-DFT,
                                                   nearIR, NL-DFT gradient (VV10), updates on ESD,
                                                   ML-optimized integration grids, MBIS, APM,
                                                   GOAT, DOCKER, SOLVATOR, interface openCOSMO-RS
   S Lehtola, MJT Oliveira, MAL Marques          : LibXC Library
   Liviu Ungur et al                             : ANISO software


 Your calculation uses the libint2 library for the computation of 2-el integrals
 For citations please refer to: http://libint.valeyev.net

 Your ORCA version has been built with support for libXC version: 6.2.2
 For citations please refer to: https://libxc.gitlab.io

 This ORCA versions uses:
   CBLAS   interface :  Fast vector & matrix operations
   LAPACKE interface :  Fast linear algebra routines
   SCALAPACK package :  Parallel linear algebra routines
   Shared memory     :  Shared parallel matrices
   BLAS/LAPACK       :  OpenBLAS 0.3.27  USE64BITINT DYNAMIC_ARCH NO_AFFINITY SkylakeX SINGLE_THREADED
        Core in use  :  SkylakeX
   Copyright (c) 2011-2014, The OpenBLAS Project


Your calculation utilizes the geometrical counterpoise correction gCP
Please cite in your paper:
H.Kruse, S. Grimme J.Chem.Phys., 136, (2012), 154101 
   

Your calculation utilizes the atom-pairwise dispersion correction
based on EEQ partial charges (D4)


================================================================================

----- Orbital basis set information -----
Your calculation utilizes the basis: def2-mTZVPP
   Stefan Grimme, Andreas Hansen, Sebastian Ehlert, and Jan-Michael Mewes 
   J. Chem. Phys. 154, 064103 (2021). DOI: 10.1063/5.0040021

----- AuxJ basis set information -----
Your calculation utilizes the auxiliary basis: def2/J
   F. Weigend, Phys. Chem. Chem. Phys. 8, 1057 (2006).

================================================================================
                                        WARNINGS
                       Please study these warnings very carefully!
================================================================================

Using LibXC functional ID 497 : Re-regularized SCAN exchange by Furness et al
[ 1]  J. W. Furness, A. D. Kaplan, J. Ning, J. P. Perdew, and J. Sun.,  J. Phys. Chem. Lett. 11, 8208-8215 (2020)
[ 2]  J. W. Furness, A. D. Kaplan, J. Ning, J. P. Perdew, and J. Sun.,  J. Phys. Chem. Lett. 11, 9248-9248 (2020)
Using LibXC functional ID 498 : Re-regularized SCAN correlation by Furness et al
[ 1]  J. W. Furness, A. D. Kaplan, J. Ning, J. P. Perdew, and J. Sun.,  J. Phys. Chem. Lett. 11, 8208-8215 (2020)
[ 2]  J. W. Furness, A. D. Kaplan, J. Ning, J. P. Perdew, and J. Sun.,  J. Phys. Chem. Lett. 11, 9248-9248 (2020)
Using LibXC functional ID 497 : Re-regularized SCAN exchange by Furness et al
[ 1]  J. W. Furness, A. D. Kaplan, J. Ning, J. P. Perdew, and J. Sun.,  J. Phys. Chem. Lett. 11, 8208-8215 (2020)
[ 2]  J. W. Furness, A. D. Kaplan, J. Ning, J. P. Perdew, and J. Sun.,  J. Phys. Chem. Lett. 11, 9248-9248 (2020)
Using LibXC functional ID 498 : Re-regularized SCAN correlation by Furness et al
[ 1]  J. W. Furness, A. D. Kaplan, J. Ning, J. P. Perdew, and J. Sun.,  J. Phys. Chem. Lett. 11, 8208-8215 (2020)
[ 2]  J. W. Furness, A. D. Kaplan, J. Ning, J. P. Perdew, and J. Sun.,  J. Phys. Chem. Lett. 11, 9248-9248 (2020)

================================================================================
                                       INPUT FILE
================================================================================
NAME = sp_gas.inp
|  1> ! r2scan-3c def2/J RI DEFGRID2 scfconv6 printgap
|  2> %output
|  3>     printlevel normal
|  4> end
|  5> * xyz 0 1
|  6> C -2.4152752005 -0.0792903961 7.8819e-06
|  7> C -1.8415237909 -1.3402231586 1.73474e-05
|  8> C -0.4635201729 -1.4689848999 0.0001008299
|  9> C 0.3267854683 -0.3351059892 1.44322e-05
| 10> C -0.2322116869 0.9426275442 4.26231e-05
| 11> C -1.6213762942 1.0506558379 -8.9649e-06
| 12> O 0.5081540092 2.0703408157 2.69809e-05
| 13> Cl 2.0730491099 -0.4962033769 -3.14254e-05
| 14> H -3.4882638492 0.0262390746 -0.0002683867
| 15> H -2.4592782342 -2.223181533 -0.0004483077
| 16> H -0.0001806088 -2.4426502291 -0.0001576641
| 17> H -2.0487527425 2.0400670469 -0.0005280336
| 18> H 1.4551049744 1.8501836388 4.2731e-06
| 19> *
| 20> 
| 21>                          ****END OF INPUT****
================================================================================

                       ****************************
                       * Single Point Calculation *
                       ****************************

---------------------------------
CARTESIAN COORDINATES (ANGSTROEM)
---------------------------------
  C     -2.415275   -0.079290    0.000008
  C     -1.841524   -1.340223    0.000017
  C     -0.463520   -1.468985    0.000101
  C      0.326785   -0.335106    0.000014
  C     -0.232212    0.942628    0.000043
  C     -1.621376    1.050656   -0.000009
  O      0.508154    2.070341    0.000027
  Cl     2.073049   -0.496203   -0.000031
  H     -3.488264    0.026239   -0.000268
  H     -2.459278   -2.223182   -0.000448
  H     -0.000181   -2.442650   -0.000158
  H     -2.048753    2.040067   -0.000528
  H      1.455105    1.850184    0.000004

----------------------------
CARTESIAN COORDINATES (A.U.)
----------------------------
  NO LB      ZA    FRAG     MASS         X           Y           Z
   0 C     6.0000    0    12.011   -4.564209   -0.149837    0.000015
   1 C     6.0000    0    12.011   -3.479976   -2.532655    0.000033
   2 C     6.0000    0    12.011   -0.875926   -2.775979    0.000191
   3 C     6.0000    0    12.011    0.617535   -0.633259    0.000027
   4 C     6.0000    0    12.011   -0.438816    1.781308    0.000081
   5 C     6.0000    0    12.011   -3.063957    1.985452   -0.000017
   6 O     8.0000    0    15.999    0.960272    3.912377    0.000051
   7 Cl   17.0000    0    35.453    3.917495   -0.937688   -0.000059
   8 H     1.0000    0     1.008   -6.591863    0.049585   -0.000507
   9 H     1.0000    0     1.008   -4.647362   -4.201204   -0.000847
  10 H     1.0000    0     1.008   -0.000341   -4.615940   -0.000298
  11 H     1.0000    0     1.008   -3.871582    3.855168   -0.000998
  12 H     1.0000    0     1.008    2.749750    3.496340    0.000008

--------------------------------
INTERNAL COORDINATES (ANGSTROEM)
--------------------------------
 C      0   0   0     0.000000000000     0.00000000     0.00000000
 C      1   0   0     1.385331047675     0.00000000     0.00000000
 C      2   1   0     1.384006345438   119.80481384     0.00000000
 C      3   2   1     1.382123148676   119.53796360     0.00000000
 C      4   3   2     1.394661536966   121.49481991     0.00000000
 C      1   2   3     1.380961246900   120.44161576     0.00000000
 O      5   4   3     1.349028756893   123.08536859   179.99663754
 Cl     4   3   2     1.753678726677   119.60545933   180.00568998
 H      1   2   3     1.078165657842   120.08358142   179.98701845
 H      2   1   3     1.077606727881   120.55520742   180.02522347
 H      3   2   1     1.078289289461   120.78670485   180.01651900
 H      6   1   2     1.077768731449   121.54622002   179.96809285
 H      7   5   4     0.972206415094   110.19745706     0.00000000

---------------------------
INTERNAL COORDINATES (A.U.)
---------------------------
 C      0   0   0     0.000000000000     0.00000000     0.00000000
 C      1   0   0     2.617896284925     0.00000000     0.00000000
 C      2   1   0     2.615392960487   119.80481384     0.00000000
 C      3   2   1     2.611834234351   119.53796360     0.00000000
 C      4   3   2     2.635528354379   121.49481991     0.00000000
 C      1   2   3     2.609638558199   120.44161576     0.00000000
 O      5   4   3     2.549294897311   123.08536859   179.99663754
 Cl     4   3   2     3.313972520304   119.60545933   180.00568998
 H      1   2   3     2.037437820320   120.08358142   179.98701845
 H      2   1   3     2.036381595766   120.55520742   180.02522347
 H      3   2   1     2.037671450221   120.78670485   180.01651900
 H      6   1   2     2.036687738142   121.54622002   179.96809285
 H      7   5   4     1.837203870169   110.19745706     0.00000000

---------------------
BASIS SET INFORMATION
---------------------
There are 4 groups of distinct atoms

 Group   1 Type C   : 11s6p1d contracted to 5s3p1d pattern {62111/411/1}
 Group   2 Type O   : 11s6p2d contracted to 5s3p2d pattern {62111/411/11}
 Group   3 Type Cl  : 14s9p2d contracted to 5s4p2d pattern {73211/6111/11}
 Group   4 Type H   : 4s1p contracted to 2s1p pattern {31/1}

Atom   0C    basis set group =>   1
Atom   1C    basis set group =>   1
Atom   2C    basis set group =>   1
Atom   3C    basis set group =>   1
Atom   4C    basis set group =>   1
Atom   5C    basis set group =>   1
Atom   6O    basis set group =>   2
Atom   7Cl   basis set group =>   3
Atom   8H    basis set group =>   4
Atom   9H    basis set group =>   4
Atom  10H    basis set group =>   4
Atom  11H    basis set group =>   4
Atom  12H    basis set group =>   4
---------------------------------
AUXILIARY/J BASIS SET INFORMATION
---------------------------------
There are 4 groups of distinct atoms

 Group   1 Type C   : 12s5p4d2f1g contracted to 6s4p3d1f1g pattern {711111/2111/211/2/1}
 Group   2 Type O   : 12s5p4d2f1g contracted to 6s4p3d1f1g pattern {711111/2111/211/2/1}
 Group   3 Type Cl  : 14s5p5d2f1g contracted to 8s4p3d1f1g pattern {71111111/2111/311/2/1}
 Group   4 Type H   : 5s2p1d contracted to 3s1p1d pattern {311/2/1}

Atom   0C    basis set group =>   1
Atom   1C    basis set group =>   1
Atom   2C    basis set group =>   1
Atom   3C    basis set group =>   1
Atom   4C    basis set group =>   1
Atom   5C    basis set group =>   1
Atom   6O    basis set group =>   2
Atom   7Cl   basis set group =>   3
Atom   8H    basis set group =>   4
Atom   9H    basis set group =>   4
Atom  10H    basis set group =>   4
Atom  11H    basis set group =>   4
Atom  12H    basis set group =>   4

Checking for AutoStart:
The File: sp_gas.gbw exists
Trying to determine its content:
     ... Fine, the file contains calculation information
     ... Fine, the calculation information was read
     ... Fine, the file contains a basis set
     ... Fine, the basis set was read
     ... Fine, the file contains a geometry
     ... Fine, the geometry was read
     ... Fine, the file contains a set of orbitals
     ... Fine, the orbitals can be read
     => possible old guess file was deleted
     => GBW file was renamed to GES file
     => GES file is set as startup file
     => Guess is set to MORead
     ... now leaving AutoStart

------------------------------------------------------------------------------
                             ORCA STARTUP CALCULATIONS
                           -- RI-GTO INTEGRALS CHOSEN --
------------------------------------------------------------------------------
------------------------------------------------------------------------------
                   ___                                                        
                  /   \      - P O W E R E D   B Y -                         
                 /     \                                                     
                 |  |  |   _    _      __       _____    __    __             
                 |  |  |  | |  | |    /  \     |  _  \  |  |  /  |          
                  \  \/   | |  | |   /    \    | | | |  |  | /  /          
                 / \  \   | |__| |  /  /\  \   | |_| |  |  |/  /          
                |  |  |   |  __  | /  /__\  \  |    /   |      \           
                |  |  |   | |  | | |   __   |  |    \   |  |\   \          
                \     /   | |  | | |  |  |  |  | |\  \  |  | \   \       
                 \___/    |_|  |_| |__|  |__|  |_| \__\ |__|  \__/        
                                                                              
                      - O R C A' S   B I G   F R I E N D -                    
                                      &                                       
                       - I N T E G R A L  F E E D E R -                       
                                                                              
 v1 FN, 2020, v2 2021, v3 2022-2024                                           
------------------------------------------------------------------------------


----------------------
SHARK INTEGRAL PACKAGE
----------------------

Number of atoms                             ...     13
Number of basis functions                   ...    190
Number of shells                            ...     90
Maximum angular momentum                    ...      2
Integral batch strategy                     ... SHARK/LIBINT Hybrid
RI-J (if used) integral strategy            ... SPLIT-RIJ (Revised 2003 algorithm where possible)
Printlevel                                  ...      1
Contraction scheme used                     ... SEGMENTED contraction
Prescreening option                         ... SCHWARTZ
   Thresh                                   ... 1.000e-10
   Tcut                                     ... 1.000e-11
   Tpresel                                  ... 1.000e-11 
Coulomb Range Separation                    ... NOT USED
Exchange Range Separation                   ... NOT USED
Multipole approximations                    ... NOT USED
Finite Nucleus Model                        ... NOT USED
CABS basis                                  ... NOT available
Auxiliary Coulomb fitting basis             ... AVAILABLE
   # of basis functions in Aux-J            ...    449
   # of shells in Aux-J                     ...    147
   Maximum angular momentum in Aux-J        ...      4
Auxiliary J/K fitting basis                 ... NOT available
Auxiliary Correlation fitting basis         ... NOT available
Auxiliary 'external' fitting basis          ... NOT available

Checking pre-screening integrals            ... done (  0.0 sec) Dimension = 90
Check shell pair data                       ... done (  0.0 sec)
Shell pair information
Shell pair cut-off parameter TPreSel        ...   1.0e-11
Total number of shell pairs                 ...      4095
Shell pairs after pre-screening             ...      3716
Total number of primitive shell pairs       ...     15962
Primitive shell pairs kept                  ...     10238
          la=0 lb=0:   1098 shell pairs
          la=1 lb=0:   1371 shell pairs
          la=1 lb=1:    440 shell pairs
          la=2 lb=0:    464 shell pairs
          la=2 lb=1:    288 shell pairs
          la=2 lb=2:     55 shell pairs

Calculating one electron integrals          ... done (  0.0 sec)
Calculating RI/J V-Matrix + Cholesky decomp.... done (  0.1 sec)
Calculating Nuclear repulsion               ... done (  0.0 sec) ENN=    407.212721617129 Eh

Diagonalization of the overlap matrix:
Smallest eigenvalue                        ... 2.795e-05
Time for diagonalization                   ...    0.003 sec
Threshold for overlap eigenvalues          ... 1.000e-07
Number of eigenvalues below threshold      ... 0
Time for construction of square roots      ...    0.014 sec
Total time needed                          ...    0.026 sec

-------------------
DFT GRID GENERATION
-------------------

General Integration Accuracy     IntAcc      ... 4.388
Radial Grid Type                 RadialGrid  ... OptM3 with GC (2021)
Angular Grid (max. ang.)         AngularGrid ... 4 (Lebedev-302)
Angular grid pruning method      GridPruning ... 4 (adaptive)
Weight generation scheme         WeightScheme... mBecke (2022)
Basis function cutoff            BFCut       ... 1.0000e-10
Integration weight cutoff        WCut        ... 1.0000e-14
Partially contracted basis set               ... off
Rotationally invariant grid construction     ... off
Angular grids for H and He will be reduced by one unit
Diffuse basis detected: some atoms will have their outermost
                        angular grid increased by 1.

Total number of grid points                  ...    65878
Total number of batches                      ...     1036
Average number of points per batch           ...       63
Average number of grid points per atom       ...     5068
Initializing property integral containers    ... done (  0.0 sec)

SHARK setup successfully completed in   1.1 seconds

Maximum memory used throughout the entire STARTUP-calculation: 30.6 MB
-------------------------------------------------------------------------------
                                 ORCA GUESS
                   Start orbitals & Density for SCF / CASSCF
-------------------------------------------------------------------------------

------------
SCF SETTINGS
------------
Hamiltonian:
 Density Functional     Method          .... DFT(GTOs)
  Functional kind                       .... Exchange
  Functional name                       .... Re-regularized SCAN exchange by Furness et al
  Functional family                     .... MGGA
  Functional refs                              
    [ 0] J. W. Furness, A. D. Kaplan, J. Ning, J. P. Perdew, and J. Sun.,  J. Phys. Chem. Lett. 11, 8208-8215 (2020), doi: 10.1021/acs.jpclett.0c02405
    [ 1] J. W. Furness, A. D. Kaplan, J. Ning, J. P. Perdew, and J. Sun.,  J. Phys. Chem. Lett. 11, 9248-9248 (2020), doi: 10.1021/acs.jpclett.0c03077
  Functional external parameters        .... 6
    Parameter  0 _c1        =  6.670000e-01 : c1 parameter        
    Parameter  1 _c2        =  8.000000e-01 : c2 parameter        
    Parameter  2 _d         =  1.240000e+00 : d parameter         
    Parameter  3 _k1        =  6.500000e-02 : k1 parameter        
    Parameter  4 _eta       =  1.000000e-03 : eta parameter       
    Parameter  5 _dp2       =  3.610000e-01 : dp2 parameter       
  Functional kind                       .... Correlation
  Functional name                       .... Re-regularized SCAN correlation by Furness et al
  Functional family                     .... MGGA
  Functional refs                              
    [ 0] J. W. Furness, A. D. Kaplan, J. Ning, J. P. Perdew, and J. Sun.,  J. Phys. Chem. Lett. 11, 8208-8215 (2020), doi: 10.1021/acs.jpclett.0c02405
    [ 1] J. W. Furness, A. D. Kaplan, J. Ning, J. P. Perdew, and J. Sun.,  J. Phys. Chem. Lett. 11, 9248-9248 (2020), doi: 10.1021/acs.jpclett.0c03077
  Functional external parameters        .... 1
    Parameter  0 _eta       =  1.000000e-03 : Regularization parameter
 Gradients option       PostSCFGGA      .... off
 RI-approximation to the Coulomb term is turned on
   Number of AuxJ basis functions       .... 449


General Settings:
 Integral files         IntName         .... sp_gas
 Hartree-Fock type      HFTyp           .... RHF
 Total Charge           Charge          ....    0
 Multiplicity           Mult            ....    1
 Number of Electrons    NEL             ....   66
 Basis Dimension        Dim             ....  190
 Nuclear Repulsion      ENuc            ....    407.2127216171 Eh

Convergence Acceleration:
 AO-DIIS                CNVDIIS         .... on
   Start iteration      DIISMaxIt       ....    12
   Startup error        DIISStart       ....  0.200000
   # of expansion vecs  DIISMaxEq       ....     5
   Bias factor          DIISBfac        ....   1.050
   Max. coefficient     DIISMaxC        ....  10.000
 MO-DIIS                CNVKDIIS        .... off
 Trust-Rad. Augm. Hess. CNVTRAH         .... auto
   Auto Start mean grad. ratio tolernc. ....  1.125000
   Auto Start start iteration           ....     1
   Auto Start num. interpolation iter.  ....    10
   Max. Number of Micro iterations      ....    24
   Max. Number of Macro iterations      .... Maxiter - #DIIS iter
   Number of Davidson start vectors     ....     2
   Converg. threshold    (grad. norm)   ....   3.330e-04
   Grad. Scal. Fac. for Micro threshold ....   0.100
   Minimum threshold for Micro iter.    ....   1.000e-02
   NR start threshold (gradient norm)   ....   1.000e-04
   Initial trust radius                 ....   0.400
   Minimum AH scaling param. (alpha)    ....   1.000
   Maximum AH scaling param. (alpha)    .... 1000.000
   Quad. conv. algorithm                .... NR
   White noise on init. David. guess    .... on
   Maximum white noise                  ....   0.010
   Pseudo random numbers                .... off
   Inactive MOs                         .... canonical
   Orbital update algorithm             .... Taylor
   Preconditioner                       .... Diag
   Full preconditioner red. dimension   ....   250
   COSX micro iterations for RIJONX calc.... off
 SOSCF                  CNVSOSCF        .... on
   Start iteration      SOSCFMaxIt      ....   150
   Startup grad/error   SOSCFStart      ....  0.003300
   Hessian update       SOSCFHessUp     .... L-BFGS
 Level Shifting         CNVShift        .... on
   Level shift para.    LevelShift      ....    0.2500
   Turn off err/grad.   ShiftErr        ....    0.0010
 Zerner damping         CNVZerner       .... off
 Static damping         CNVDamp         .... on
   Fraction old density DampFac         ....    0.7000
   Max. Damping (<1)    DampMax         ....    0.9800
   Min. Damping (>=0)   DampMin         ....    0.0000
   Turn off err/grad.   DampErr         ....    0.1000

SCF Procedure:
 Maximum # iterations   MaxIter         ....   125
 SCF integral mode      SCFMode         .... Direct
   Integral package                     .... SHARK and LIBINT hybrid scheme
 Reset frequency        DirectResetFreq ....    20
 Integral Threshold     Thresh          ....  1.000e-10 Eh
 Primitive CutOff       TCut            ....  1.000e-11 Eh

Convergence Tolerance:
 Convergence Check Mode ConvCheckMode   .... Total+1el-Energy
 Convergence forced     ConvForced      .... 0
 Energy Change          TolE            ....  1.000e-06 Eh
 1-El. energy change                    ....  1.000e-03 Eh
 Orbital Gradient       TolG            ....  3.330e-04
 Orbital Rotation angle TolX            ....  3.330e-04
 DIIS Error             TolErr          ....  1.000e-06

---------------------
INITIAL GUESS: MOREAD
---------------------
Guess MOs are being read from file: sp_gas.ges
Input Geometry matches current geometry (good)
Atom 0: N(Shells)= 9 and 6 - projection required
Input basis set needs projection
NBasis(read)= 126
NBasis(calc)= 190
Basis set overlap was calculated
Using GuessMode=FMatrix for the initial guess
C*T matrix was formed
Effective Fockian was calculated
Effective Fockian was diagonalized
Initial density was built
                      ------------------
                      INITIAL GUESS DONE (   0.0 sec)
                      ------------------
             **** ENERGY FILE WAS UPDATED (sp_gas.en.tmp) ****
Finished Guess after   0.2 sec
Maximum memory used throughout the entire GUESS-calculation: 13.1 MB

-------------------------------------------------------------------------------------------
                                      ORCA LEAN-SCF
                              memory conserving SCF solver
-------------------------------------------------------------------------------------------

----------------------------------------D-I-I-S--------------------------------------------
Iteration    Energy (Eh)           Delta-E    RMSDP     MaxDP     DIISErr   Damp  Time(sec)
-------------------------------------------------------------------------------------------
               ***  Starting incremental Fock matrix formation  ***
    1    -766.8144360704475275     0.00e+00  1.74e-02  5.81e-01  6.20e-01  0.700   2.1
    2    -766.8651139988967316    -5.07e-02  1.27e-02  4.02e-01  4.36e-01  0.700   2.0
    3    -766.9009192934372550    -3.58e-02  8.98e-03  2.76e-01  3.06e-01  0.700   2.4
    4    -766.9260512151461171    -2.51e-02  6.30e-03  1.92e-01  2.14e-01  0.700   2.2
                               ***Turning on AO-DIIS***
    5    -766.9436789359290287    -1.76e-02  4.42e-03  1.33e-01  1.50e-01  0.700   2.8
    6    -766.9560355477244684    -1.24e-02  3.10e-03  9.32e-02  1.05e-01  0.700   1.9
    7    -766.9646983281761550    -8.66e-03  2.17e-03  6.52e-02  7.33e-02  0.700   2.1
    8    -766.9707684141885693    -6.07e-03  5.06e-03  1.52e-01  5.14e-02  0.000   1.9
                              *** Initializing SOSCF ***
---------------------------------------S-O-S-C-F--------------------------------------
Iteration    Energy (Eh)           Delta-E    RMSDP     MaxDP     MaxGrad    Time(sec)
--------------------------------------------------------------------------------------
    9    -766.9849510019539593    -1.42e-02  1.20e-05  2.37e-04  1.82e-04     1.8
               *** Restarting incremental Fock matrix formation ***
   10    -766.9849511463696672    -1.44e-07  8.00e-06  1.25e-04  3.71e-05     2.3
                  *** Gradient check signals convergence ***

               *****************************************************
               *                     SUCCESS                       *
               *           SCF CONVERGED AFTER  10 CYCLES          *
               *****************************************************

             **** ENERGY FILE WAS UPDATED (sp_gas.en.tmp) ****

----------------
TOTAL SCF ENERGY
----------------

Total Energy       :       -766.98495114636967 Eh          -20870.72157 eV

Components:
Nuclear Repulsion  :        407.21272161712938 Eh           11080.82149 eV
Electronic Energy  :      -1174.19767276349899 Eh          -31951.54306 eV
One Electron Energy:      -1858.64428450047171 Eh          -50576.28223 eV
Two Electron Energy:        684.44661173697273 Eh           18624.73917 eV

Virial components:
Potential Energy   :      -1531.71342018750465 Eh          -41680.04114 eV
Kinetic Energy     :        764.72846904113487 Eh           20809.31957 eV
Virial Ratio       :          2.00295069713838

DFT components:
N(Alpha)           :       33.000030141587 electrons
N(Beta)            :       33.000030141587 electrons
N(Total)           :       66.000060283175 electrons
E(X)               :      -68.880410106860 Eh       
E(C)               :       -2.266794434961 Eh       
E(XC)              :      -71.147204541821 Eh       

---------------
SCF CONVERGENCE
---------------

  Last Energy change         ...    1.4442e-07  Tolerance :   1.0000e-06
  Last MAX-Density change    ...    1.2546e-04  Tolerance :   1.0000e-05
  Last RMS-Density change    ...    7.9974e-06  Tolerance :   1.0000e-06
  Last DIIS Error            ...    1.8174e-04  Tolerance :   1.0000e-06
  Last Orbital Gradient      ...    3.7055e-05  Tolerance :   3.3300e-04
  Last Orbital Rotation      ...    2.1798e-04  Tolerance :   3.3300e-04


----------------
ORBITAL ENERGIES
----------------

  NO   OCC          E(Eh)            E(eV) 
   0   2.0000    -101.235315     -2754.7530 
   1   2.0000     -18.995716      -516.8997 
   2   2.0000     -10.114855      -275.2392 
   3   2.0000     -10.103523      -274.9308 
   4   2.0000     -10.053130      -273.5596 
   5   2.0000     -10.046560      -273.3808 
   6   2.0000     -10.044411      -273.3223 
   7   2.0000     -10.042015      -273.2571 
   8   2.0000      -9.390755      -255.5354 
   9   2.0000      -7.136790      -194.2019 
  10   2.0000      -7.127032      -193.9364 
  11   2.0000      -7.126837      -193.9311 
  12   2.0000      -1.043929       -28.4068 
  13   2.0000      -0.863138       -23.4872 
  14   2.0000      -0.814079       -22.1522 
  15   2.0000      -0.728784       -19.8312 
  16   2.0000      -0.708864       -19.2892 
  17   2.0000      -0.598954       -16.2984 
  18   2.0000      -0.592363       -16.1190 
  19   2.0000      -0.528837       -14.3904 
  20   2.0000      -0.483401       -13.1540 
  21   2.0000      -0.454111       -12.3570 
  22   2.0000      -0.425561       -11.5801 
  23   2.0000      -0.409908       -11.1542 
  24   2.0000      -0.406580       -11.0636 
  25   2.0000      -0.372047       -10.1239 
  26   2.0000      -0.353697        -9.6246 
  27   2.0000      -0.339077        -9.2268 
  28   2.0000      -0.326820        -8.8932 
  29   2.0000      -0.317028        -8.6268 
  30   2.0000      -0.304549        -8.2872 
  31   2.0000      -0.241465        -6.5706 
  32   2.0000      -0.215960        -5.8766 
  33   0.0000      -0.045934        -1.2499 
  34   0.0000      -0.029030        -0.7899 
  35   0.0000      -0.005146        -0.1400 
  36   0.0000       0.062672         1.7054 
  37   0.0000       0.102004         2.7757 
  38   0.0000       0.114833         3.1248 
  39   0.0000       0.120227         3.2716 
  40   0.0000       0.133458         3.6316 
  41   0.0000       0.139599         3.7987 
  42   0.0000       0.147603         4.0165 
  43   0.0000       0.183272         4.9871 
*Only the first 10 virtual orbitals were printed.

                    ********************************
                    * MULLIKEN POPULATION ANALYSIS *
                    ********************************

-----------------------
MULLIKEN ATOMIC CHARGES
-----------------------
   0 C :   -0.117620
   1 C :   -0.164826
   2 C :   -0.165562
   3 C :    0.011604
   4 C :    0.343621
   5 C :   -0.277156
   6 O :   -0.408551
   7 Cl:   -0.173599
   8 H :    0.151239
   9 H :    0.151421
  10 H :    0.161507
  11 H :    0.162208
  12 H :    0.325714
Sum of atomic charges:   -0.0000000

--------------------------------
MULLIKEN REDUCED ORBITAL CHARGES
--------------------------------
  0 C s       :     3.167365  s :     3.167365
      pz      :     0.983195  p :     2.911950
      px      :     1.030584
      py      :     0.898172
      dz2     :     0.003318  d :     0.038305
      dxz     :     0.002414
      dyz     :     0.007693
      dx2y2   :     0.013113
      dxy     :     0.011767

  1 C s       :     3.185738  s :     3.185738
      pz      :     1.018120  p :     2.941688
      px      :     0.935553
      py      :     0.988016
      dz2     :     0.003342  d :     0.037400
      dxz     :     0.005396
      dyz     :     0.003812
      dx2y2   :     0.012112
      dxy     :     0.012739

  2 C s       :     3.172987  s :     3.172987
      pz      :     0.997484  p :     2.955151
      px      :     0.973591
      py      :     0.984077
      dz2     :     0.003444  d :     0.037424
      dxz     :     0.006919
      dyz     :     0.003647
      dx2y2   :     0.009959
      dxy     :     0.013455

  3 C s       :     3.193897  s :     3.193897
      pz      :     1.097428  p :     2.743318
      px      :     0.713557
      py      :     0.932333
      dz2     :     0.003965  d :     0.051181
      dxz     :     0.007326
      dyz     :     0.007217
      dx2y2   :     0.017428
      dxy     :     0.015246

  4 C s       :     3.101451  s :     3.101451
      pz      :     0.958196  p :     2.480414
      px      :     0.822922
      py      :     0.699295
      dz2     :     0.005011  d :     0.074514
      dxz     :     0.010437
      dyz     :     0.014662
      dx2y2   :     0.022070
      dxy     :     0.022334

  5 C s       :     3.229179  s :     3.229179
      pz      :     1.034836  p :     3.012441
      px      :     0.943659
      py      :     1.033946
      dz2     :     0.003443  d :     0.035536
      dxz     :     0.005720
      dyz     :     0.003205
      dx2y2   :     0.013760
      dxy     :     0.009408

  6 O s       :     3.754508  s :     3.754508
      pz      :     1.832225  p :     4.619202
      px      :     1.278088
      py      :     1.508889
      dz2     :     0.006168  d :     0.034841
      dxz     :     0.003024
      dyz     :     0.005406
      dx2y2   :     0.010945
      dxy     :     0.009299

  7 Cls       :     5.950528  s :     5.950528
      pz      :     3.941828  p :    11.167088
      px      :     3.277769
      py      :     3.947492
      dz2     :     0.005915  d :     0.055984
      dxz     :     0.020283
      dyz     :     0.000821
      dx2y2   :     0.017515
      dxy     :     0.011450

  8 H s       :     0.829194  s :     0.829194
      pz      :     0.004155  p :     0.019567
      px      :     0.012197
      py      :     0.003215

  9 H s       :     0.828817  s :     0.828817
      pz      :     0.004440  p :     0.019762
      px      :     0.006108
      py      :     0.009214

 10 H s       :     0.818737  s :     0.818737
      pz      :     0.004157  p :     0.019756
      px      :     0.004815
      py      :     0.010783

 11 H s       :     0.818042  s :     0.818042
      pz      :     0.004337  p :     0.019750
      px      :     0.004475
      py      :     0.010938

 12 H s       :     0.631110  s :     0.631110
      pz      :     0.011620  p :     0.043175
      px      :     0.022525
      py      :     0.009031


------------------------
MULLIKEN OVERLAP CHARGES
------------------------
B(  0-C ,  1-C ) :   0.9804 B(  0-C ,  2-C ) :  -0.1361 B(  0-C ,  4-C ) :  -0.1178 
B(  0-C ,  5-C ) :   0.8537 B(  0-C ,  8-H ) :   0.7931 B(  0-C ,  9-H ) :  -0.0542 
B(  0-C , 11-H ) :  -0.0580 B(  1-C ,  2-C ) :   0.8433 B(  1-C ,  3-C ) :  -0.1062 
B(  1-C ,  4-C ) :  -0.0969 B(  1-C ,  5-C ) :  -0.1324 B(  1-C ,  9-H ) :   0.7953 
B(  2-C ,  3-C ) :   0.6075 B(  2-C ,  4-C ) :   0.1129 B(  2-C ,  5-C ) :  -0.1812 
B(  2-C ,  7-Cl) :  -0.1258 B(  2-C ,  9-H ) :  -0.0521 B(  2-C , 10-H ) :   0.7901 
B(  3-C ,  4-C ) :   0.7679 B(  3-C ,  5-C ) :  -0.1272 B(  3-C ,  6-O ) :  -0.1647 
B(  3-C ,  7-Cl) :   0.4911 B(  4-C ,  5-C ) :   0.8679 B(  4-C ,  6-O ) :   0.5130 
B(  4-C ,  7-Cl) :  -0.1746 B(  4-C , 12-H ) :  -0.0821 B(  5-C ,  8-H ) :  -0.0517 
B(  5-C , 11-H ) :   0.7894 B(  6-O , 12-H ) :   0.5919 B(  7-Cl, 12-H ) :   0.0514 



                     *******************************
                     * LOEWDIN POPULATION ANALYSIS *
                     *******************************

----------------------
LOEWDIN ATOMIC CHARGES
----------------------
   0 C :   -0.152652
   1 C :   -0.180006
   2 C :   -0.163076
   3 C :   -0.160781
   4 C :    0.170777
   5 C :   -0.134799
   6 O :   -0.491793
   7 Cl:    0.122994
   8 H :    0.170433
   9 H :    0.170221
  10 H :    0.178724
  11 H :    0.183276
  12 H :    0.286683

-------------------------------
LOEWDIN REDUCED ORBITAL CHARGES
-------------------------------
  0 C s       :     2.900861  s :     2.900861
      pz      :     0.969297  p :     3.168374
      px      :     1.103027
      py      :     1.096049
      dz2     :     0.005587  d :     0.083418
      dxz     :     0.003555
      dyz     :     0.014366
      dx2y2   :     0.032006
      dxy     :     0.027903

  1 C s       :     2.900082  s :     2.900082
      pz      :     1.008950  p :     3.198093
      px      :     1.088159
      py      :     1.100984
      dz2     :     0.005667  d :     0.081831
      dxz     :     0.009730
      dyz     :     0.006390
      dx2y2   :     0.028918
      dxy     :     0.031126

  2 C s       :     2.902441  s :     2.902441
      pz      :     0.985707  p :     3.177912
      px      :     1.103820
      py      :     1.088384
      dz2     :     0.005951  d :     0.082724
      dxz     :     0.012784
      dyz     :     0.006305
      dx2y2   :     0.025026
      dxy     :     0.032658

  3 C s       :     2.890784  s :     2.890784
      pz      :     1.080590  p :     3.160738
      px      :     0.980137
      py      :     1.100011
      dz2     :     0.007813  d :     0.109260
      dxz     :     0.013408
      dyz     :     0.012646
      dx2y2   :     0.039074
      dxy     :     0.036319

  4 C s       :     2.781721  s :     2.781721
      pz      :     0.912335  p :     2.884236
      px      :     1.022247
      py      :     0.949654
      dz2     :     0.011210  d :     0.163267
      dxz     :     0.019324
      dyz     :     0.027992
      dx2y2   :     0.053361
      dxy     :     0.051380

  5 C s       :     2.892219  s :     2.892219
      pz      :     1.015108  p :     3.165269
      px      :     1.044393
      py      :     1.105768
      dz2     :     0.005692  d :     0.077312
      dxz     :     0.010256
      dyz     :     0.005106
      dx2y2   :     0.031678
      dxy     :     0.024579

  6 O s       :     3.479618  s :     3.479618
      pz      :     1.797703  p :     4.740058
      px      :     1.363381
      py      :     1.578974
      dz2     :     0.032892  d :     0.272117
      dxz     :     0.026643
      dyz     :     0.044893
      dx2y2   :     0.093947
      dxy     :     0.073742

  7 Cls       :     5.655073  s :     5.655073
      pz      :     3.914306  p :    11.108604
      px      :     3.309980
      py      :     3.884317
      dz2     :     0.013973  d :     0.113330
      dxz     :     0.034776
      dyz     :     0.000804
      dx2y2   :     0.042500
      dxy     :     0.021277

  8 H s       :     0.784863  s :     0.784863
      pz      :     0.008950  p :     0.044705
      px      :     0.028612
      py      :     0.007143

  9 H s       :     0.784512  s :     0.784512
      pz      :     0.009703  p :     0.045267
      px      :     0.014013
      py      :     0.021551

 10 H s       :     0.775945  s :     0.775945
      pz      :     0.009122  p :     0.045331
      px      :     0.010847
      py      :     0.025361

 11 H s       :     0.771318  s :     0.771318
      pz      :     0.009661  p :     0.045406
      px      :     0.009764
      py      :     0.025981

 12 H s       :     0.591332  s :     0.591332
      pz      :     0.029591  p :     0.121985
      px      :     0.067196
      py      :     0.025197


---------------------------------
LOEWDIN BOND ORDERS (THRESH 0.050000)
---------------------------------
B(  0-C ,  1-C ) :   1.4881 B(  0-C ,  2-C ) :   0.0889 B(  0-C ,  3-C ) :   0.1136 
B(  0-C ,  4-C ) :   0.0936 B(  0-C ,  5-C ) :   1.5218 B(  0-C ,  8-H ) :   0.8724 
B(  0-C ,  9-H ) :   0.0536 B(  0-C , 11-H ) :   0.0530 B(  1-C ,  2-C ) :   1.5037 
B(  1-C ,  3-C ) :   0.0988 B(  1-C ,  4-C ) :   0.1040 B(  1-C ,  5-C ) :   0.0903 
B(  1-C ,  8-H ) :   0.0536 B(  1-C ,  9-H ) :   0.8727 B(  1-C , 10-H ) :   0.0533 
B(  2-C ,  3-C ) :   1.4458 B(  2-C ,  4-C ) :   0.0913 B(  2-C ,  5-C ) :   0.1245 
B(  2-C ,  7-Cl) :   0.1488 B(  2-C ,  9-H ) :   0.0551 B(  2-C , 10-H ) :   0.8664 
B(  3-C ,  4-C ) :   1.2581 B(  3-C ,  5-C ) :   0.0918 B(  3-C ,  6-O ) :   0.2145 
B(  3-C ,  7-Cl) :   1.3688 B(  3-C , 10-H ) :   0.0542 B(  4-C ,  5-C ) :   1.3084 
B(  4-C ,  6-O ) :   1.5182 B(  4-C ,  7-Cl) :   0.1395 B(  4-C , 11-H ) :   0.0546 
B(  4-C , 12-H ) :   0.0503 B(  5-C ,  6-O ) :   0.2269 B(  5-C ,  8-H ) :   0.0554 
B(  5-C , 11-H ) :   0.8589 B(  6-O ,  7-Cl) :   0.0816 B(  6-O , 12-H ) :   0.9271 


------------------------------------------
LOEWDIN REDUCED ORBITAL POPULATIONS PER MO
-------------------------------------------
THRESHOLD FOR PRINTING IS 0.1%%
                      0         1         2         3         4         5   
                 -101.23532 -18.99572 -10.11485 -10.10352 -10.05313 -10.04656
                   2.00000   2.00000   2.00000   2.00000   2.00000   2.00000
                  --------  --------  --------  --------  --------  --------
 0 C  s               0.0       0.0       0.0       0.0       0.0      98.1
 1 C  s               0.0       0.0       0.0       0.0       0.1       0.3
 1 C  px              0.0       0.0       0.0       0.0       0.1       0.0
 1 C  py              0.0       0.0       0.0       0.0       0.0       0.1
 2 C  s               0.0       0.0       0.0       0.0      99.5       0.0
 3 C  s               0.0       0.0       0.1      99.5       0.0       0.0
 3 C  py              0.0       0.0       0.1       0.0       0.1       0.0
 4 C  s               0.0       0.0      99.2       0.1       0.0       0.0
 4 C  py              0.0       0.0       0.0       0.1       0.0       0.0
 5 C  s               0.0       0.0       0.0       0.0       0.0       1.3
 5 C  px              0.0       0.0       0.1       0.0       0.0       0.0
 6 O  s               0.0      99.9       0.0       0.0       0.0       0.0
 6 O  dxy             0.0       0.0       0.2       0.0       0.0       0.0
 7 Cl s             100.0       0.0       0.0       0.0       0.0       0.0

                      6         7         8         9        10        11   
                 -10.04441 -10.04202  -9.39076  -7.13679  -7.12703  -7.12684
                   2.00000   2.00000   2.00000   2.00000   2.00000   2.00000
                  --------  --------  --------  --------  --------  --------
 0 C  s               1.3       0.3       0.0       0.0       0.0       0.0
 0 C  py              0.1       0.1       0.0       0.0       0.0       0.0
 1 C  s               0.0      99.3       0.0       0.0       0.0       0.0
 2 C  px              0.0       0.1       0.0       0.0       0.0       0.0
 3 C  px              0.0       0.0       0.2       0.0       0.0       0.0
 4 C  px              0.1       0.0       0.0       0.0       0.0       0.0
 5 C  s              98.3       0.0       0.0       0.0       0.0       0.0
 7 Cl s               0.0       0.0      99.8       0.0       0.0       0.0
 7 Cl pz              0.0       0.0       0.0       0.0       0.0     100.0
 7 Cl px              0.0       0.0       0.0      98.8       1.2       0.0
 7 Cl py              0.0       0.0       0.0       1.2      98.8       0.0

                     12        13        14        15        16        17   
                  -1.04393  -0.86314  -0.81408  -0.72878  -0.70886  -0.59895
                   2.00000   2.00000   2.00000   2.00000   2.00000   2.00000
                  --------  --------  --------  --------  --------  --------
 0 C  s               0.1       3.3      12.1       0.4      17.1       4.7
 0 C  px              0.1       1.2       1.7       0.1       0.2       0.8
 0 C  py              0.0       0.0       0.0       8.8       0.2       0.1
 0 C  dz2             0.0       0.0       0.1       0.0       0.1       0.0
 0 C  dxy             0.0       0.0       0.0       0.3       0.0       0.0
 1 C  s               0.0       4.5       9.3      11.2       5.9       0.9
 1 C  px              0.0       1.1       0.1       2.8       4.3       3.5
 1 C  py              0.0       0.5       1.8       1.2       1.9       4.6
 1 C  dz2             0.0       0.1       0.1       0.1       0.0       0.0
 1 C  dx2y2           0.0       0.0       0.0       0.1       0.1       0.1
 2 C  s               0.1       9.8       3.1      16.4       2.9       4.6
 2 C  px              0.0       0.3       3.6       1.3       3.5       1.1
 2 C  py              0.1       2.7       0.2       0.4       1.3       4.8
 2 C  dz2             0.0       0.1       0.0       0.1       0.0       0.0
 2 C  dx2y2           0.0       0.0       0.0       0.1       0.1       0.1
 2 C  dxy             0.0       0.0       0.0       0.0       0.1       0.0
 3 C  s               1.2      22.1       0.2       0.2       9.4       5.6
 3 C  px              0.0       1.3      14.4       0.7       5.8       0.1
 3 C  py              1.7       0.3       0.0       7.9       0.3       4.4
 3 C  dz2             0.0       0.3       0.0       0.0       0.0       0.0
 3 C  dx2y2           0.0       0.1       0.2       0.0       0.3       0.0
 3 C  dxy             0.0       0.0       0.0       0.3       0.0       0.0
 4 C  s              10.8       4.3       2.5       7.5       5.8       0.2
 4 C  px              3.6       0.2       5.0       4.9       0.4       6.1
 4 C  py              5.7       6.4       0.1       0.2       3.3      13.4
 4 C  dz2             0.4       0.0       0.0       0.0       0.0       0.0
 4 C  dx2y2           0.1       0.0       0.0       0.1       0.1       0.0
 4 C  dxy             0.6       0.1       0.0       0.1       0.1       0.1
 5 C  s               0.9       3.2       9.8      15.2       1.5       2.4
 5 C  px              1.6       0.2       0.0       0.9       6.8       2.5
 5 C  py              0.0       1.1       1.8       0.2       1.3       5.8
 5 C  dz2             0.0       0.0       0.1       0.1       0.0       0.0
 5 C  dx2y2           0.0       0.0       0.0       0.1       0.1       0.1
 5 C  dxy             0.0       0.0       0.0       0.0       0.2       0.0
 6 O  s              57.7       2.3       0.1       1.7       1.0       0.1
 6 O  px              0.0       0.3       0.7       3.6       1.5      13.7
 6 O  py              3.0       0.4       0.1       1.0       1.2       0.1
 6 O  dz2             0.2       0.2       0.0       0.2       0.1       0.0
 6 O  dx2y2           0.0       0.2       0.0       0.0       0.4       0.5
 6 O  dxy             0.1       0.0       0.4       0.7       0.4       0.3
 7 Cl s               0.2      28.3      28.2       1.1      13.2       4.1
 7 Cl px              0.1       2.0       0.3       0.1       1.7       2.7
 7 Cl py              0.0       0.0       0.0       0.0       0.0       0.7
 7 Cl dz2             0.0       0.2       0.0       0.0       0.1       0.1
 7 Cl dx2y2           0.0       0.4       0.0       0.0       0.2       0.2
 7 Cl dxy             0.0       0.0       0.0       0.0       0.0       0.1
 8 H  s               0.0       0.3       1.2       0.1       3.5       2.0
 8 H  px              0.0       0.0       0.1       0.0       0.3       0.2
 9 H  s               0.0       0.4       0.9       1.9       1.2       0.6
 9 H  py              0.0       0.0       0.1       0.1       0.1       0.0
10 H  s               0.0       0.9       0.2       2.9       0.4       2.9
10 H  py              0.0       0.1       0.0       0.2       0.0       0.1
11 H  s               0.1       0.3       1.0       2.7       0.3       2.0
11 H  py              0.0       0.0       0.1       0.2       0.0       0.1
12 H  s               9.2       0.3       0.2       1.3       0.8       3.0
12 H  px              2.1       0.1       0.0       0.2       0.1       0.2

                     18        19        20        21        22        23   
                  -0.59236  -0.52884  -0.48340  -0.45411  -0.42556  -0.40991
                   2.00000   2.00000   2.00000   2.00000   2.00000   2.00000
                  --------  --------  --------  --------  --------  --------
 0 C  s               0.2       4.8       0.6       1.0       0.5       0.6
 0 C  px              0.0       9.6       3.0       0.1      12.5      10.3
 0 C  py             13.3       0.0       2.9       8.4       1.0       0.1
 0 C  dx2y2           0.0       0.0       0.0       0.1       0.2       0.0
 0 C  dxy             0.2       0.0       0.1       0.0       0.0       0.1
 1 C  s               8.4       0.8       1.0       1.7       1.1       0.1
 1 C  px              3.1       3.2       0.4      12.3       7.2       0.7
 1 C  py              0.4       0.6      17.6       0.3       1.4       0.8
 1 C  dx2y2           0.0       0.0       0.0       0.1       0.0       0.3
 1 C  dxy             0.0       0.1       0.0       0.1       0.0       0.1
 2 C  s               4.1       0.3       0.2       2.1       0.5       0.2
 2 C  px              8.0       8.6       0.6       2.7       8.4       1.8
 2 C  py              0.1       0.2      11.6       4.5       5.1      15.8
 2 C  dx2y2           0.1       0.0       0.0       0.0       0.4       0.0
 2 C  dxy             0.0       0.0       0.0       0.3       0.0       0.2
 3 C  s               0.2       1.4       0.2       1.9       0.3       0.8
 3 C  px              0.2       2.1       4.5       1.5       5.6       9.7
 3 C  py             12.3       4.3       5.6       4.5       0.1       0.1
 3 C  dx2y2           0.0       0.1       0.0       0.2       0.3       0.0
 3 C  dxy             0.1       0.1       0.1       0.0       0.1       0.2
 4 C  s               4.8       0.1       0.2       0.4       2.4       0.1
 4 C  px              2.7       4.7       1.6       8.1       3.9       1.9
 4 C  py              0.0       6.4       1.2       0.3       1.7       0.3
 4 C  dx2y2           0.1       0.3       0.2       0.0       0.0       0.4
 4 C  dxy             0.0       0.1       0.3       0.2       0.0       0.1
 5 C  s               6.2       1.2       2.5       0.5       0.4       0.3
 5 C  px              4.7       3.5       3.3       5.1       8.3       4.0
 5 C  py              0.2       0.3       5.7       6.2       0.6      15.9
 5 C  dx2y2           0.0       0.0       0.0       0.0       0.5       0.0
 5 C  dxy             0.0       0.2       0.0       0.2       0.0       0.1
 6 O  s               1.3       0.1       1.5       0.8       0.1       0.0
 6 O  px              8.1      19.9       5.1       0.5       2.0       0.1
 6 O  py              5.3       2.6       2.0      11.0       0.7       0.0
 6 O  dz2             0.0       0.1       0.2       0.0       0.0       0.0
 6 O  dx2y2           0.8       0.3       0.0       0.7       0.1       0.0
 6 O  dxy             0.2       0.1       0.1       0.1       0.4       0.0
 7 Cl s               0.3       2.3       1.7       1.2       1.1       1.1
 7 Cl px              0.2       5.7       5.4      10.3      13.3      12.7
 7 Cl py              0.4       0.6       2.0       0.7       0.9       0.0
 7 Cl dx2y2           0.0       0.4       0.0       0.4       0.2       0.0
 7 Cl dxy             0.1       0.0       0.2       0.1       0.1       0.0
 8 H  s               0.1       7.2       0.4       0.7       7.1       3.4
 8 H  px              0.0       0.4       0.0       0.0       0.2       0.1
 9 H  s               4.3       0.1       6.8       5.1       1.1       0.2
 9 H  px              0.1       0.0       0.2       0.0       0.0       0.0
 9 H  py              0.2       0.0       0.1       0.2       0.0       0.0
10 H  s               2.3       1.1       2.6       2.8       6.8       7.9
10 H  px              0.0       0.0       0.1       0.1       0.0       0.0
10 H  py              0.2       0.1       0.0       0.0       0.2       0.1
11 H  s               2.9       0.0       6.1       1.8       2.3       9.0
11 H  px              0.0       0.0       0.0       0.1       0.0       0.0
11 H  py              0.2       0.0       0.3       0.0       0.1       0.2
12 H  s               2.7       5.7       1.1       0.2       0.7       0.0
12 H  px              0.2       0.2       0.0       0.0       0.0       0.0
12 H  py              0.1       0.1       0.0       0.2       0.0       0.0

                     24        25        26        27        28        29   
                  -0.40658  -0.37205  -0.35370  -0.33908  -0.32682  -0.31703
                   2.00000   2.00000   2.00000   2.00000   2.00000   2.00000
                  --------  --------  --------  --------  --------  --------
 0 C  s               0.0       0.0       0.2       0.0       0.1       0.0
 0 C  pz              3.1       0.0       0.0       0.8       0.0      21.9
 0 C  px              0.0       1.2       7.9       0.0       6.3       0.0
 0 C  py              0.0      10.3       5.1       0.0       3.6       0.0
 0 C  dxz             0.0       0.0       0.0       0.0       0.0       0.1
 0 C  dx2y2           0.0       0.1       0.4       0.0       0.6       0.0
 0 C  dxy             0.0       0.2       0.4       0.0       0.0       0.0
 1 C  s               0.0       0.1       0.2       0.0       0.0       0.0
 1 C  pz              2.7       0.0       0.0       3.9       0.0      20.2
 1 C  px              0.0       1.4       8.7       0.0       4.2       0.0
 1 C  py              0.0      10.1       8.2       0.0       4.7       0.0
 1 C  dyz             0.0       0.0       0.0       0.0       0.0       0.1
 1 C  dx2y2           0.0       0.0       0.3       0.0       0.2       0.0
 1 C  dxy             0.0       0.1       0.8       0.0       0.1       0.0
 2 C  s               0.0       0.2       0.6       0.0       0.2       0.0
 2 C  pz              5.6       0.0       0.0       9.0       0.0       7.1
 2 C  px              0.0       3.1       5.9       0.0       3.5       0.0
 2 C  py              0.0       0.0       1.9       0.0       4.6       0.0
 2 C  dxz             0.0       0.0       0.0       0.0       0.0       0.2
 2 C  dx2y2           0.0       0.0       0.0       0.0       0.3       0.0
 2 C  dxy             0.0       0.1       0.3       0.0       0.3       0.0
 3 C  s               0.0       0.6       0.2       0.0       0.4       0.0
 3 C  pz             18.1       0.0       0.0      10.7       0.0       0.3
 3 C  px              0.0       0.1       2.1       0.0       0.7       0.0
 3 C  py              0.0       1.7       2.7       0.0       6.0       0.0
 3 C  dxz             0.0       0.0       0.0       0.1       0.0       0.3
 3 C  dyz             0.0       0.0       0.0       0.2       0.0       0.0
 3 C  dx2y2           0.0       0.1       0.3       0.0       0.3       0.0
 4 C  s               0.0       0.1       0.1       0.0       0.2       0.0
 4 C  pz             26.4       0.0       0.0       3.8       0.0       0.0
 4 C  px              0.0       0.2       2.2       0.0       4.7       0.0
 4 C  py              0.0       2.3       0.4       0.0       4.2       0.0
 4 C  dxz             0.0       0.0       0.0       0.0       0.0       0.2
 4 C  dyz             0.0       0.0       0.0       0.6       0.0       0.1
 4 C  dx2y2           0.0       0.6       0.0       0.0       0.6       0.0
 4 C  dxy             0.0       0.0       0.5       0.0       0.3       0.0
 5 C  s               0.0       0.2       0.5       0.0       0.1       0.0
 5 C  pz              7.6       0.0       0.0       0.3       0.0       9.9
 5 C  px              0.0       0.5       4.9       0.0       5.7       0.0
 5 C  py              0.0       6.8       5.1       0.0       3.0       0.0
 5 C  dxz             0.1       0.0       0.0       0.0       0.0       0.0
 5 C  dyz             0.0       0.0       0.0       0.0       0.0       0.1
 5 C  dx2y2           0.0       0.1       0.1       0.0       0.6       0.0
 5 C  dxy             0.0       0.1       0.1       0.0       0.2       0.0
 6 O  s               0.0       5.7       0.1       0.0       1.6       0.0
 6 O  pz             26.2       0.0       0.0      35.1       0.0       6.6
 6 O  px              0.0       8.3       0.0       0.0       3.4       0.0
 6 O  py              0.0      32.4       6.5       0.0      12.6       0.0
 6 O  dz2             0.0       0.2       0.1       0.0       0.0       0.0
 6 O  dxz             0.2       0.0       0.0       0.1       0.0       0.1
 6 O  dyz             1.1       0.0       0.0       0.1       0.0       0.0
 6 O  dx2y2           0.0       0.7       0.1       0.0       0.7       0.0
 6 O  dxy             0.0       0.0       0.0       0.0       0.1       0.0
 7 Cl s               0.0       0.0       0.1       0.0       0.0       0.0
 7 Cl pz              7.8       0.0       0.0      34.3       0.0      32.1
 7 Cl px              0.0       0.7       4.1       0.0       5.0       0.0
 7 Cl py              0.0       0.3       7.8       0.0       1.0       0.0
 7 Cl dxz             0.4       0.0       0.0       0.3       0.0       0.0
 7 Cl dx2y2           0.0       0.1       0.0       0.0       0.0       0.0
 7 Cl dxy             0.0       0.0       0.1       0.0       0.1       0.0
 8 H  s               0.0       1.2       6.3       0.0       5.6       0.0
 8 H  pz              0.0       0.0       0.0       0.0       0.0       0.2
 9 H  s               0.0       2.1      13.1       0.0       0.2       0.0
 9 H  pz              0.0       0.0       0.0       0.0       0.0       0.1
 9 H  px              0.0       0.1       0.0       0.0       0.1       0.0
 9 H  py              0.0       0.0       0.1       0.0       0.0       0.0
10 H  s               0.0       0.9       0.5       0.0       6.3       0.0
10 H  px              0.0       0.0       0.1       0.0       0.0       0.0
11 H  s               0.0       3.6       0.3       0.0       5.4       0.0
12 H  s               0.0       2.5       0.1       0.0       1.3       0.0
12 H  pz              0.4       0.0       0.0       0.5       0.0       0.1
12 H  py              0.0       0.4       0.1       0.0       0.1       0.0

                     30        31        32        33        34        35   
                  -0.30455  -0.24146  -0.21596  -0.04593  -0.02903  -0.00515
                   2.00000   2.00000   2.00000   0.00000   0.00000   0.00000
                  --------  --------  --------  --------  --------  --------
 0 C  s               0.0       0.0       0.0       0.0       0.0       0.5
 0 C  pz              0.0      17.1       5.6      19.3      11.8       0.0
 0 C  px              0.1       0.0       0.0       0.0       0.0       0.0
 0 C  py              0.6       0.0       0.0       0.0       0.0       0.0
 0 C  dxz             0.0       0.0       0.0       0.2       0.1       0.0
 0 C  dyz             0.0       0.2       0.4       0.4       0.9       0.0
 1 C  s               0.1       0.0       0.0       0.0       0.0       0.6
 1 C  pz              0.0       1.5      22.1       0.6      29.5       0.0
 1 C  px              1.1       0.0       0.0       0.0       0.0       0.5
 1 C  py              0.8       0.0       0.0       0.0       0.0       0.3
 1 C  dxz             0.0       0.4       0.0       1.0       0.0       0.0
 1 C  dyz             0.0       0.2       0.0       0.4       0.2       0.0
 1 C  dxy             0.1       0.0       0.0       0.0       0.0       0.3
 2 C  s               0.3       0.0       0.0       0.0       0.0       0.0
 2 C  pz              0.0      26.7       1.0      25.9       5.8       0.0
 2 C  px              2.6       0.0       0.0       0.0       0.0       0.1
 2 C  py              1.0       0.0       0.0       0.0       0.0       1.6
 2 C  dxz             0.0       0.0       0.5       0.1       1.1       0.0
 2 C  dyz             0.0       0.1       0.1       0.4       0.1       0.0
 2 C  dx2y2           0.0       0.0       0.0       0.0       0.0       1.2
 2 C  dxy             0.1       0.0       0.0       0.0       0.0       0.5
 3 C  s               0.0       0.0       0.0       0.0       0.0       7.0
 3 C  pz              0.0      10.6      14.3      18.1       6.3       0.0
 3 C  px              0.1       0.0       0.0       0.0       0.0      22.2
 3 C  py              2.9       0.0       0.0       0.0       0.0       0.4
 3 C  dz2             0.0       0.0       0.0       0.0       0.0       0.7
 3 C  dxz             0.0       0.2       0.1       0.1       0.0       0.0
 3 C  dyz             0.0       0.2       0.2       0.5       1.1       0.0
 3 C  dx2y2           0.0       0.0       0.0       0.0       0.0       1.0
 3 C  dxy             0.8       0.0       0.0       0.0       0.0       0.1
 4 C  s               0.4       0.0       0.0       0.0       0.0       0.3
 4 C  pz              0.0       0.3      15.1       0.2      25.9       0.0
 4 C  px              0.9       0.0       0.0       0.0       0.0       0.9
 4 C  py              1.4       0.0       0.0       0.0       0.0       1.9
 4 C  dxz             0.0       0.5       0.2       0.9       0.0       0.0
 4 C  dyz             0.0       0.1       0.7       0.5       0.0       0.0
 4 C  dx2y2           0.0       0.0       0.0       0.0       0.0       0.7
 4 C  dxy             0.0       0.0       0.0       0.0       0.0       1.3
 5 C  s               0.1       0.0       0.0       0.0       0.0       0.5
 5 C  pz              0.0      25.1       7.8      23.9       3.2       0.0
 5 C  px              0.1       0.0       0.0       0.0       0.0       0.7
 5 C  py              1.1       0.0       0.0       0.0       0.0       0.1
 5 C  dxz             0.0       0.0       0.3       0.1       1.3       0.0
 5 C  dyz             0.0       0.1       0.0       0.3       0.1       0.0
 5 C  dxy             0.1       0.0       0.0       0.0       0.0       0.5
 6 O  s               0.0       0.0       0.0       0.0       0.0       0.6
 6 O  pz              0.0       1.4      20.6       0.0       5.5       0.0
 6 O  px              1.0       0.0       0.0       0.0       0.0       0.3
 6 O  py              0.0       0.0       0.0       0.0       0.0       0.9
 6 O  dxz             0.0       0.1       0.9       0.7       1.2       0.0
 6 O  dyz             0.0       0.0       1.0       0.4       2.3       0.0
 6 O  dx2y2           0.1       0.0       0.0       0.0       0.0       0.0
 6 O  dxy             0.4       0.0       0.0       0.0       0.0       0.2
 7 Cl s               0.0       0.0       0.0       0.0       0.0       5.2
 7 Cl pz              0.0      14.0       7.5       1.7       0.7       0.0
 7 Cl px              1.1       0.0       0.0       0.0       0.0      26.5
 7 Cl py             79.6       0.0       0.0       0.0       0.0       0.4
 7 Cl dz2             0.0       0.0       0.0       0.0       0.0       3.5
 7 Cl dxz             0.0       0.5       0.6       2.1       1.1       0.0
 7 Cl dyz             0.0       0.0       0.0       0.3       0.1       0.0
 7 Cl dx2y2           0.0       0.0       0.0       0.0       0.0      12.8
 7 Cl dxy             0.1       0.0       0.0       0.0       0.0       0.5
 8 H  pz              0.0       0.2       0.1       0.5       0.4       0.0
 9 H  s               1.3       0.0       0.0       0.0       0.0       0.7
 9 H  pz              0.0       0.0       0.3       0.0       0.9       0.0
 9 H  px              0.0       0.0       0.0       0.0       0.0       0.1
10 H  s               0.0       0.0       0.0       0.0       0.0       2.1
10 H  pz              0.0       0.3       0.0       0.8       0.2       0.0
10 H  py              0.0       0.0       0.0       0.0       0.0       0.2
11 H  s               0.8       0.0       0.0       0.0       0.0       1.1
11 H  pz              0.0       0.3       0.1       0.7       0.1       0.0
11 H  px              0.0       0.0       0.0       0.0       0.0       0.1
12 H  s               0.3       0.0       0.0       0.0       0.0       0.1
12 H  pz              0.0       0.0       0.4       0.0       0.2       0.0
12 H  px              0.1       0.0       0.0       0.0       0.0       0.0

                     36        37        38        39        40        41   
                   0.06267   0.10200   0.11483   0.12023   0.13346   0.13960
                   0.00000   0.00000   0.00000   0.00000   0.00000   0.00000
                  --------  --------  --------  --------  --------  --------
 0 C  s               0.5      10.6       0.0       3.5       3.4       1.0
 0 C  pz              0.0       0.0      14.8       0.0       0.0       0.0
 0 C  px              0.8       8.7       0.0       6.1       3.8       4.2
 0 C  py              0.5       0.0       0.0       2.8       0.0       6.1
 0 C  dz2             0.1       0.0       0.0       0.0       0.4       0.0
 0 C  dxz             0.0       0.0       0.5       0.0       0.0       0.0
 0 C  dx2y2           0.1       1.8       0.0       0.1       0.5       0.0
 0 C  dxy             0.0       0.1       0.0       0.0       0.1       0.4
 1 C  s               0.6      11.1       0.0       1.9       3.8       5.8
 1 C  pz              0.0       0.0      13.9       0.0       0.0       0.0
 1 C  px              0.2       3.2       0.0       0.4       1.5      16.6
 1 C  py              0.2       5.2       0.0       7.7       2.0       3.1
 1 C  dz2             0.0       0.0       0.0       0.1       0.6       0.3
 1 C  dxz             0.0       0.0       0.1       0.0       0.0       0.0
 1 C  dyz             0.0       0.0       0.3       0.0       0.0       0.0
 1 C  dx2y2           0.0       0.4       0.0       0.0       0.2       0.4
 1 C  dxy             0.0       1.0       0.0       0.0       0.2       0.0
 2 C  s               1.3       9.2       0.0       4.5       7.4       9.3
 2 C  pz              0.0       0.0      12.6       0.0       0.0       0.0
 2 C  px              1.4       0.3       0.0       2.3       0.1       3.2
 2 C  py              0.3       2.8       0.0      17.3       1.5       8.4
 2 C  dz2             0.0       0.0       0.0       0.0       0.9       0.6
 2 C  dyz             0.0       0.0       0.4       0.0       0.0       0.0
 2 C  dx2y2           0.0       0.0       0.0       0.5       0.0       0.1
 2 C  dxy             0.0       0.3       0.0       0.1       0.0       0.1
 3 C  s               5.2       2.6       0.0       1.4      13.0       1.4
 3 C  pz              0.0       0.0      11.8       0.0       0.0       0.0
 3 C  px              2.9       1.9       0.0       0.2       0.2       0.7
 3 C  py              0.5       0.1       0.0       0.9       0.1       1.0
 3 C  dz2             0.1       0.3       0.0       0.2       0.5       0.2
 3 C  dxz             0.0       0.0       0.5       0.0       0.0       0.0
 3 C  dx2y2           0.1       0.2       0.0       0.4       0.0       0.2
 3 C  dxy             0.1       0.0       0.0       0.3       0.0       0.7
 4 C  s               6.1       2.4       0.0       2.4       6.5       0.1
 4 C  pz              0.0       0.0      16.7       0.0       0.0       0.0
 4 C  px              4.4       0.5       0.0       0.1       0.3       1.7
 4 C  py              3.5       1.2       0.0       1.2       0.9       1.2
 4 C  dz2             0.9       0.0       0.0       0.3       0.9       0.0
 4 C  dx2y2           0.1       0.0       0.0       0.0       0.1       0.3
 4 C  dxy             0.6       0.1       0.0       0.5       0.0       0.4
 5 C  s               2.5       5.4       0.0       7.3       4.2       3.0
 5 C  pz              0.0       0.0      15.7       0.0       0.0       0.0
 5 C  px              1.9       2.0       0.0       4.5       0.9       4.6
 5 C  py              0.1       1.5       0.0      13.5       1.8       2.6
 5 C  dz2             0.0       0.0       0.0       0.0       0.8       0.4
 5 C  dxz             0.0       0.0       0.2       0.0       0.0       0.0
 5 C  dyz             0.0       0.0       0.5       0.0       0.0       0.0
 5 C  dx2y2           0.0       0.7       0.0       0.0       0.2       0.2
 5 C  dxy             0.4       0.2       0.0       0.6       0.0       0.1
 6 O  s               9.2       0.1       0.0       0.1       0.3       0.6
 6 O  pz              0.0       0.0       1.4       0.0       0.0       0.0
 6 O  px              5.6       0.0       0.0       0.0       4.2       0.3
 6 O  py              2.6       0.3       0.0       0.0       0.1       0.6
 6 O  dz2             0.2       0.1       0.0       0.6       5.5       0.0
 6 O  dxz             0.0       0.0       0.3       0.0       0.0       0.0
 6 O  dyz             0.0       0.0       1.7       0.0       0.0       0.0
 6 O  dx2y2           2.7       0.0       0.0       0.2       3.2       0.2
 6 O  dxy             0.3       0.7       0.0       0.1       0.3       0.0
 7 Cl s               1.7       0.7       0.0       0.1       0.1       0.8
 7 Cl pz              0.0       0.0       0.5       0.0       0.0       0.0
 7 Cl px              0.5       1.2       0.0       0.1       0.4       0.7
 7 Cl py              2.2       0.2       0.0       0.6       1.1       0.9
 7 Cl dz2             0.1       0.2       0.0       0.0       5.9       0.0
 7 Cl dxz             0.0       0.0       4.0       0.0       0.0       0.0
 7 Cl dyz             0.0       0.0       0.2       0.0       0.0       0.0
 7 Cl dx2y2           6.6       0.7       0.0       0.0       0.0       0.2
 7 Cl dxy             0.0       0.1       0.0       1.2       0.0       2.5
 8 H  s               0.2       5.6       0.0       1.1       2.6       0.3
 8 H  pz              0.0       0.0       0.9       0.0       0.0       0.0
 8 H  px              0.1       2.6       0.0       0.9       0.4       0.3
 8 H  py              0.0       0.0       0.0       0.1       0.0       0.6
 9 H  s               0.0       4.1       0.0       0.9       2.5       2.9
 9 H  pz              0.0       0.0       0.9       0.0       0.0       0.0
 9 H  px              0.0       0.5       0.0       0.1       0.0       1.9
 9 H  py              0.0       1.8       0.0       0.6       0.4       0.4
10 H  s               0.2       2.3       0.0       3.4       2.1       3.4
10 H  pz              0.0       0.0       0.9       0.0       0.0       0.0
10 H  px              0.1       0.2       0.0       0.1       0.0       0.4
10 H  py              0.0       1.1       0.0       2.2       0.1       1.6
11 H  s               0.6       2.4       0.0       3.8       2.2       1.8
11 H  pz              0.0       0.0       1.0       0.0       0.0       0.0
11 H  px              0.0       0.1       0.0       0.9       0.0       0.5
11 H  py              0.0       1.1       0.0       1.6       0.4       0.5
12 H  s              24.8       0.0       0.0       0.2       8.7       0.0
12 H  px              6.7       0.0       0.0       0.0       2.1       0.0
12 H  py              0.1       0.0       0.0       0.0       0.1       0.0

                     42        43        44        45        46        47   
                   0.14760   0.18327   0.19095   0.20762   0.21274   0.21710
                   0.00000   0.00000   0.00000   0.00000   0.00000   0.00000
                  --------  --------  --------  --------  --------  --------
 0 C  s              10.0       1.3      10.0       0.5       0.0       2.3
 0 C  pz              0.0       0.0       0.0       0.0      14.6       0.0
 0 C  px             14.7       0.3       0.9       2.1       0.0       3.1
 0 C  py              0.2       7.0       0.2       2.7       0.0       7.4
 0 C  dz2             1.0       0.0       1.0       0.0       0.0       0.5
 0 C  dx2y2           0.3       0.2       0.7       0.1       0.0       0.0
 0 C  dxy             0.0       1.2       0.1       1.2       0.0       0.6
 1 C  s               5.9       1.9       9.1       3.9       0.0       2.8
 1 C  pz              0.0       0.0       0.0       0.0      15.5       0.0
 1 C  px              0.5       0.2       0.6       2.1       0.0       1.1
 1 C  py              7.2       0.6       0.8       9.2       0.0       9.9
 1 C  dz2             0.5       0.1       1.0       0.2       0.0       0.5
 1 C  dx2y2           0.3       0.0       0.0       0.0       0.0       0.6
 1 C  dxy             0.5       0.6       1.0       0.1       0.0       0.1
 2 C  s               0.2       3.3       1.1       2.4       0.0       1.3
 2 C  pz              0.0       0.0       0.0       0.0      16.4       0.0
 2 C  px              7.8       0.7       8.1       3.3       0.0       5.0
 2 C  py              1.0       6.7       2.0       1.6       0.0       2.1
 2 C  dz2             0.0       0.5       0.0       0.4       0.0       0.2
 2 C  dx2y2           0.4       0.0       0.2       1.4       0.0       0.3
 2 C  dxy             0.6       0.4       1.0       0.4       0.0       0.2
 3 C  s               0.6       3.7       4.1       3.3       0.0       3.2
 3 C  pz              0.0       0.0       0.0       0.0      14.9       0.0
 3 C  px              2.0       5.6       3.3       1.2       0.0       0.6
 3 C  py              1.5       2.6       0.6       3.8       0.0       3.4
 3 C  dz2             0.0       0.6       0.0       0.4       0.0       0.6
 3 C  dx2y2           0.1       0.1       0.2       1.1       0.0       0.1
[...]
 6 O  s               2.8       0.6       0.8       0.5       0.1       5.9
 6 O  px              1.0       1.9       2.7       1.2       0.4       1.8
 6 O  py              1.1       6.0       0.2       0.2       1.6       4.9
 6 O  dz2             0.2       1.4       0.0       0.0       0.2       3.8
 6 O  dx2y2           1.4      16.7       1.1       1.5       5.5       0.2
 6 O  dxy             1.1      10.8       0.8       1.2       2.8       3.3
 7 Cl s               0.1       0.0       0.0       0.1       0.0       0.0
 7 Cl px              0.6       0.1       0.0       0.2       0.0       0.0
 7 Cl py              0.0       0.1       0.0       0.0       0.0       0.0
 7 Cl dx2y2           0.0       0.2       0.0       0.1       0.0       0.0
 7 Cl dxy             0.0       0.1       0.1       0.0       0.0       0.0
 8 H  s               1.3       0.2       1.2       1.4       0.0       3.0
 8 H  px              4.7       0.8       6.3       4.1       0.0       6.2
 8 H  py              0.0       0.0       0.1       0.3       0.2       0.0
 9 H  s               1.2       0.7       0.9       1.2       0.0       3.4
 9 H  px              1.7       0.8       1.9       0.5       0.1       2.4
 9 H  py              2.4       2.5       2.9       3.5       0.0       4.5
10 H  s               3.1       0.1       0.3       5.0       0.0       1.9
10 H  px              3.3       0.3       0.1       2.7       0.1       0.5
10 H  py             11.1       0.1       0.3      12.8       0.0       3.6
11 H  s               2.4       1.3       0.1       4.7       0.1       1.2
11 H  px              0.8       2.0       0.3       1.8       0.4       0.5
11 H  py             11.3       3.3       0.0      12.9       0.1       2.1
12 H  px              0.0       0.0       0.1       0.0       0.2       0.1
12 H  py              0.4       5.5       0.2       0.3       1.6       0.0

                    180       181       182       183       184       185   
                   4.17009   4.57302  21.34834  21.85738  21.95894  22.14455
                   0.00000   0.00000   0.00000   0.00000   0.00000   0.00000
                  --------  --------  --------  --------  --------  --------
 0 C  s               0.1       0.0      14.0      27.9       0.1      35.2
 0 C  px              0.6       0.0       0.0       0.0       0.0       0.0
 0 C  dz2             0.1       0.0       0.0       0.0       0.0       0.0
 0 C  dx2y2           3.2       0.2       0.0       0.0       0.0       0.0
 1 C  s               0.1       0.0      14.4      14.3      19.9       7.3
 1 C  px              0.1       0.0       0.0       0.0       0.0       0.0
 1 C  py              0.4       0.0       0.0       0.0       0.0       0.0
 1 C  dx2y2           0.2       0.0       0.0       0.0       0.0       0.0
 1 C  dxy             2.0       0.1       0.0       0.0       0.0       0.0
 2 C  s               0.1       0.0      17.6       1.4      24.3      12.9
 2 C  py              0.4       0.0       0.0       0.0       0.0       0.0
 2 C  dx2y2           0.6       0.1       0.0       0.0       0.0       0.0
 2 C  dxy             1.2       0.1       0.0       0.0       0.0       0.0
 3 C  s               0.3       0.1      26.9      42.6       0.2      21.7
 3 C  px              0.2       0.0       0.0       0.0       0.0       0.0
 3 C  py              0.1       0.0       0.0       0.0       0.2       0.0
 3 C  dx2y2           0.7       0.3       0.0       0.0       0.0       0.0
 3 C  dxy             0.1       0.0       0.0       0.0       0.0       0.0
 4 C  s               2.1       0.3      13.1       3.6      26.7      21.2
 4 C  px              1.9       0.6       0.0       0.0       0.1       0.0
 4 C  py              2.9       1.3       0.0       0.1       0.0       0.0
 4 C  dz2             1.7       0.1       0.0       0.0       0.0       0.0
 4 C  dx2y2           1.3       0.5       0.0       0.0       0.0       0.0
 4 C  dxy             6.8       2.2       0.0       0.0       0.0       0.0
 5 C  s               0.1       0.2      13.7       9.7      28.2       1.4
 5 C  px              0.1       0.0       0.0       0.0       0.0       0.0
 5 C  py              0.9       0.1       0.0       0.0       0.0       0.0
 5 C  dz2             0.2       0.0       0.0       0.0       0.0       0.0
 5 C  dx2y2           1.7       0.2       0.0       0.0       0.0       0.0
 5 C  dxy             1.6       0.1       0.0       0.0       0.0       0.0
 6 O  s              22.1       4.1       0.1       0.0       0.1       0.0
 6 O  px              0.4      22.7       0.0       0.0       0.0       0.0
 6 O  py             13.9       0.2       0.0       0.0       0.0       0.0
 6 O  dz2            14.2       3.5       0.0       0.0       0.0       0.0
 6 O  dx2y2           0.1      21.3       0.0       0.0       0.0       0.0
 6 O  dxy             5.4      13.7       0.0       0.0       0.0       0.0
 7 Cl px              0.1       0.1       0.0       0.0       0.0       0.0
 8 H  s               0.8       0.0       0.0       0.0       0.0       0.0
 8 H  px              1.3       0.0       0.0       0.0       0.0       0.0
 9 H  s               0.6       0.0       0.0       0.0       0.0       0.0
 9 H  px              0.4       0.0       0.0       0.0       0.0       0.0
 9 H  py              0.7       0.0       0.0       0.0       0.0       0.0
10 H  s               0.4       0.0       0.0       0.0       0.0       0.0
10 H  px              0.2       0.0       0.0       0.0       0.0       0.0
10 H  py              0.6       0.0       0.0       0.0       0.0       0.0
11 H  s               1.1       0.1       0.0       0.0       0.0       0.0
11 H  px              0.3       0.0       0.0       0.0       0.0       0.0
11 H  py              1.5       0.1       0.0       0.0       0.0       0.0
12 H  s               1.5      12.6       0.0       0.0       0.0       0.0
12 H  px              2.2      13.9       0.0       0.0       0.0       0.0
12 H  py              0.0       0.9       0.0       0.0       0.0       0.0

                    186       187       188       189   
                  22.16820  22.31421  25.34595  43.62620
                   0.00000   0.00000   0.00000   0.00000
                  --------  --------  --------  --------
 0 C  s               0.7      21.7       0.0       0.0
 1 C  s              23.8      19.9       0.0       0.0
 2 C  s              28.4      15.0       0.0       0.0
 3 C  s               0.5       7.7       0.0       0.0
 3 C  px              0.0       0.0       0.4       0.0
 4 C  s              19.6      15.4       0.1       0.0
 5 C  s              26.6      20.0       0.0       0.0
 6 O  s               0.0       0.0       0.0      99.9
 7 Cl s               0.0       0.0      99.2       0.0
 7 Cl px              0.0       0.0       0.1       0.0


                      *****************************
                      * MAYER POPULATION ANALYSIS *
                      *****************************

  NA   - Mulliken gross atomic population
  ZA   - Total nuclear charge
  QA   - Mulliken gross atomic charge
  VA   - Mayer's total valence
  BVA  - Mayer's bonded valence
  FA   - Mayer's free valence

  ATOM       NA         ZA         QA         VA         BVA        FA
  0 C      6.1176     6.0000    -0.1176     3.8145     3.8145     0.0000
  1 C      6.1648     6.0000    -0.1648     3.8400     3.8400     0.0000
  2 C      6.1656     6.0000    -0.1656     3.7917     3.7917    -0.0000
  3 C      5.9884     6.0000     0.0116     3.6468     3.6468    -0.0000
  4 C      5.6564     6.0000     0.3436     3.7917     3.7917    -0.0000
  5 C      6.2772     6.0000    -0.2772     3.8576     3.8576     0.0000
  6 O      8.4086     8.0000    -0.4086     2.0241     2.0241    -0.0000
  7 Cl    17.1736    17.0000    -0.1736     1.1214     1.1214    -0.0000
  8 H      0.8488     1.0000     0.1512     0.9669     0.9669     0.0000
  9 H      0.8486     1.0000     0.1514     0.9677     0.9677     0.0000
 10 H      0.8385     1.0000     0.1615     0.9651     0.9651    -0.0000
 11 H      0.8378     1.0000     0.1622     0.9661     0.9661     0.0000
 12 H      0.6743     1.0000     0.3257     0.9079     0.9079    -0.0000

  Mayer bond orders larger than 0.100000
B(  0-C ,  1-C ) :   1.4072 B(  0-C ,  5-C ) :   1.4016 B(  0-C ,  8-H ) :   0.9451 
B(  1-C ,  2-C ) :   1.4081 B(  1-C ,  9-H ) :   0.9464 B(  2-C ,  3-C ) :   1.3230 
B(  2-C , 10-H ) :   0.9385 B(  3-C ,  4-C ) :   1.3331 B(  3-C ,  7-Cl) :   0.9383 
B(  4-C ,  5-C ) :   1.3806 B(  4-C ,  6-O ) :   1.0077 B(  5-C , 11-H ) :   0.9450 
B(  6-O , 12-H ) :   0.8472 

-------
TIMINGS
-------

Total SCF time: 0 days 0 hours 0 min 21 sec 

Total time                  ....      21.828 sec
Sum of individual times     ....      20.272 sec  ( 92.9%)

SCF preparation             ....       0.169 sec  (  0.8%)
Fock matrix formation       ....      19.114 sec  ( 87.6%)
  Startup                   ....       0.054 sec  (  0.3% of F)
  Split-RI-J                ....       3.262 sec  ( 17.1% of F)
  XC integration            ....      15.244 sec  ( 79.8% of F)
    XC Preparation          ....       0.000 sec  (  0.0% of XC)
    Basis function eval.    ....       2.169 sec  ( 14.2% of XC)
    Density eval.           ....       4.008 sec  ( 26.3% of XC)
    XC-Functional eval.     ....       1.595 sec  ( 10.5% of XC)
    XC-Potential eval.      ....       4.792 sec  ( 31.4% of XC)
Diagonalization             ....       0.000 sec  (  0.0%)
Density matrix formation    ....       0.234 sec  (  1.1%)
Total Energy calculation    ....       0.032 sec  (  0.1%)
Population analysis         ....       0.087 sec  (  0.4%)
Orbital Transformation      ....       0.052 sec  (  0.2%)
Orbital Orthonormalization  ....       0.000 sec  (  0.0%)
DIIS solution               ....       0.538 sec  (  2.5%)
  MO trafo                  ....       0.000 sec  (  0.0 % of DIIS)
  Orb grad                  ....       0.000 sec  (  0.0 % of DIIS)
  Energy W gradient         ....       0.000 sec  (  0.0 % of DIIS)
  DIIS error                ....       0.012 sec  (  2.2 % of DIIS)
  DIIS work                 ....       0.482 sec  ( 89.6 % of DIIS)
  Form Q                    ....       0.000 sec  (  0.0 % of DIIS)
  Form QpQm                 ....       0.000 sec  (  0.0 % of DIIS)
  Exp/Cayley                ....       0.000 sec  (  0.0 % of DIIS)
  Orb update                ....       0.000 sec  (  0.0 % of DIIS)
  Wake-sleep                ....       0.019 sec  (  3.5 % of DIIS)
SOSCF solution              ....       0.046 sec  (  0.2%)
  MO trafo                  ....       0.035 sec  ( 75.7 % of SOSCF)
  Orb grad                  ....       0.001 sec  (  1.3 % of SOSCF)
  Rot update                ....       0.000 sec  (  0.1 % of SOSCF)
  Step                      ....       0.010 sec  ( 22.7 % of SOSCF)
Finished LeanSCF after  21.9 sec

Maximum memory used throughout the entire LEANSCF-calculation: 19.8 MB


-------------------------------------------------------------------------------
                          DFT DISPERSION CORRECTION                            
                                                                               
                                DFTD4 V3.4.0                                   
-------------------------------------------------------------------------------
The R2SCAN3C composite method is recognized
Using three-body term ABC
Active option DFTDOPT                   ...         5   

-------------------------   ----------------
Dispersion correction           -0.004543823
-------------------------   ----------------

------------------   -----------------
gCP correction             0.005816395
------------------   -----------------

-------------------------   --------------------
FINAL SINGLE POINT ENERGY      -766.983678574612
-------------------------   --------------------


------------------------------------------------------------------------------
                              ORCA PROPERTY CALCULATIONS
------------------------------------------------------------------------------

GBWName                                 ... sp_gas.gbw
Number of atoms                         ...     13
Number of basis functions               ...    190
Max core memory                         ...   1024 MB

Electric properties:
Dipole moment                           ... YES
Quadrupole moment                       ...  NO
Static polarizability (Dipole/Dipole)   ...  NO
Static polarizability (Dipole/Quad.)    ...  NO
Static polarizability (Quad./Quad.)     ...  NO
Static polarizability (Velocity)        ...  NO

Atomic electric properties:
Dipole moment                           ...  NO
Quadrupole moment                       ...  NO
Static polarizability                   ...  NO

Choice of electric origin               ... Center of mass
Position of electric origin             ...    -0.000031    -0.000018    -0.000000

General magnetic properties:
Magnetizability                         ...  NO

EPR properties:
g-Tensor (aka g-matrix)                 ...  NO
Zero-Field splitting spin-orbit         ...  NO
Zero-field splitting spin-spin          ...  NO
Hyperfine couplings                     ...  NO (   0 nuclei)
Quadrupole couplings                    ...  NO (   0 nuclei)
Contact density                         ...  NO (   0 nuclei)

NMR properties:
Chemical shifts                         ...  NO (   0 nuclei)
Spin-rotation constants                 ...  NO (   0 nuclei)
Spin-spin couplings                     ...  NO (   0 nuclei,    0 pairs)

Choice of magnetic origin               ... GIAO
Position of magnetic origin             ...     0.000000     0.000000     0.000000

Properties with geometric perturbations:
SCF Hessian                             ...  NO
IR spectrum                             ...  NO
VCD spectrum                            ...  NO
X-ray spectroscopy properties:
SCF XES/XAS/RIXS spectra                ...  NO


-------------
DIPOLE MOMENT
-------------

Method             : SCF
Type of density    : Electron Density
Multiplicity       :   1
Irrep              :   0
Energy             :  -766.9849511463696672 Eh
Relativity type    : 
Basis              : AO
                                X                 Y                 Z
Electronic contribution:      8.684339748      -0.211064778       0.000837903
Nuclear contribution   :     -8.911850906      -0.006355833      -0.001269103
                        -----------------------------------------
Total Dipole Moment    :     -0.227511158      -0.217420611      -0.000431200
                        -----------------------------------------
Magnitude (a.u.)       :      0.314695464
Magnitude (Debye)      :      0.799892301



--------------------
Rotational spectrum 
--------------------
 
Rotational constants in cm-1:             0.099869             0.051379             0.033926 
Rotational constants in MHz :          2994.010855          1540.305242          1017.064212 

Dipole components along the rotational axes: 
x,y,z [a.u.] :     0.227511    -0.217420    -0.000431 
x,y,z [Debye]:     0.578288    -0.552639    -0.001096 

 

Dipole moment calculation done in   0.0 sec 

Maximum memory used throughout the entire PROP-calculation: 11.6 MB

--------------------------------
SUGGESTED CITATIONS FOR THIS RUN
--------------------------------

Below you find a list of papers that are relevant to this ORCA run
We neither can nor want to force you to cite these papers, but we appreciate if you do
You receive ORCA, which is the product of decades of hard work by many enthusiastic individuals, for free
The only thing we kindly ask in return is that you cite our papers,
We deeply appreciate it, if you show your appreciation for ORCA by not just citing the generic ORCA reference.

Please note that relegating all ORCA citations to the supporting information does *not* help us.
SI sections are not indexed - citations you put there will not count into any citation statistics
But we need these citations in order to attract the funding resources that allow us to do what we are doing

Therefore, if you are a happy ORCA user, please consider citing a few of the papers listed below in the main body of your paper

In addition to the list printed below, the program has created the file sp_gas.bibtex that contains the list in bibtex format
You can import this file easily into all common literature databanks and citation aid programs


List of essential papers. We consider these as the minimum necessary citations

  1. Neese,F.
     Software update: the ORCA program system, version 5.0
     WIRES Comput. Molec. Sci., 2022 12(1)e1606
     doi.org/10.1002/wcms.1606
  2. Grimme,S.; Hansen,A.; Ehlert,S.; Mewes,J.
     r2SCAN-3c: A 'Swiss army knife' composite electronic-structure method
     J. Chem. Phys., 2021 154 064103
     doi.org/10.1063/5.0040021

List of papers to cite with high priority. The work reported in these papers was absolutely
necessary for this run to complete.
Our perspective: the developers of density functionals and basis sets usually get cited in chemistry papers
Good! But without the algorithms to do something with them, the functionals or basis sets would not do anything.
Hence, in our opinion, the algorithm design and method developments papers are equally worthy of getting cited

  1. Neese,F.
     An improvement of the resolution of the identity approximation for the formation of the Coulomb matrix
     J. Comp. Chem., 2003 24(14)1740-1747
     doi.org/10.1002/jcc.10318
  2. Neese,F.
     The SHARK Integral Generation and Digestion System
     J. Comp. Chem., 2022  1-16
     doi.org/10.1002/jcc.26942
  3. Lehtola,S.; Steigemann,C.; Oliveira,M.; Marques,M.
     Recent developments in Libxc - A comprehensive library of functionals for density functional theory
     Software X, 2018 7 
     doi.org/10.1016/j.softx.2017.11.002
  4. Caldeweyher,E.; Bannwarth,C.; Grimme,S.
     Extension of the D3 dispersion coefficient model
     J. Chem. Phys., 2017 147 034112-XXXX
     doi.org/10.1063/1.4993215
  5. Caldeweyher,E.; Ehlert,S.; Hansen,A.; Neugebauer,H.; Spicher,S.; Bannwarth,C.; Grimme,S.
     A generally applicable atomic-charge dependent London dispersion correction
     J. Chem. Phys., 2019 150 154122-XXXX
     doi.org/10.1063/1.5090222
  6. Caldeweyher,E.; Mewes,J.; Ehlert,S.; Grimme,S.
     Extension and evaluation of the D4 London-dispersion model for periodic systems
     Phys. Chem. Chem. Phys., 2020 22(16)8499-8512
     doi.org/10.1039/D0CP00502A

List of suggested additional citations. These are papers that are important in the 'surrounding' of 
of this run, or papers that preceded the highly important papers. If you like your results we are grateful for a citation.

  1. Neese,F.
     The ORCA program system
     WIRES Comput. Molec. Sci., 2012 2(1)73-78
     doi.org/10.1002/wcms.81
  2. Neese,F.
     Software update: the ORCA program system, version 4.0
     WIRES Comput. Molec. Sci., 2018 8(1)1-6
     doi.org/10.1002/wcms.1327
  3. Neese,F.; Wennmohs,F.; Becker,U.; Riplinger,C.
     The ORCA quantum chemistry program package
     J. Chem. Phys., 2020 152 Art. No. L224108
     doi.org/10.1063/5.0004608

List of optional additional citations

  1. Neese,F.
     Approximate second-order SCF convergence for spin unrestricted wavefunctions
     Chem. Phys. Lett., 2000 325(1-3)93-98
     doi.org/10.1016/s0009-2614(00)00662-x

Timings for individual modules:

Sum of individual times          ...       23.458 sec (=   0.391 min)
Startup calculation              ...        1.183 sec (=   0.020 min)   5.0 %
SCF iterations                   ...       22.166 sec (=   0.369 min)  94.5 %
Property calculations            ...        0.108 sec (=   0.002 min)   0.5 %
                             ****ORCA TERMINATED NORMALLY****
TOTAL RUN TIME: 0 days 0 hours 0 minutes 24 seconds 152 msec
