
                                 *****************
                                 * O   R   C   A *
                                 *****************

                                            #,                                       
                                            ###                                      
                                            ####                                     
                                            #####                                    
                                            ######                                   
                                           ########,                                 
                                     ,,################,,,,,                         
                               ,,#################################,,                 
                          ,,##########################################,,             
                       ,#########################################, ''#####,          
                    ,#############################################,,   '####,        
                  ,##################################################,,,,####,       
                ,###########''''           ''''###############################       
              ,#####''   ,,,,##########,,,,          '''####'''          '####       
            ,##' ,,,,###########################,,,                        '##       
           ' ,,###''''                  '''############,,,                           
         ,,##''                                '''############,,,,        ,,,,,,###''
      ,#''                                            '''#######################'''  
     '                                                          ''''####''''         
             ,#######,   #######,   ,#######,      ##                                
            ,#'     '#,  ##    ##  ,#'     '#,    #''#        ,####,   ,####,        
            ##       ##  ##   ,#'  ##            #'  '#       #'       #'  '#        
            ##       ##  #######   ##           ,######,      #####,   #    #        
            '#,     ,#'  ##    ##  '#,     ,#' ,#      #,     #,   #   #,  ,#        
             '#######'   ##     ##  '#######'  #'      '#     '####' # '####'        



                #########################################################
                #                        -***-                          #
                #          Department of theory and spectroscopy        #
                #                                                       #
                #                      Frank Neese                      #
                #                                                       #
                #     Directorship, Architecture, Infrastructure        #
                #                    SHARK, DRIVERS                     #
                #        Core code/Algorithms in most modules           #
                #                                                       #
                #        Max Planck Institute fuer Kohlenforschung      #
                #                Kaiser Wilhelm Platz 1                 #
                #                 D-45470 Muelheim/Ruhr                 #
                #                      Germany                          #
                #                                                       #
                #                  All rights reserved                  #
                #                        -***-                          #
                #########################################################


                         Program Version 6.0.0  -   RELEASE  -


 With contributions from (in alphabetic order):
   Daniel Aravena         : Magnetic Suceptibility
   Michael Atanasov       : Ab Initio Ligand Field Theory (pilot matlab implementation)
   Alexander A. Auer      : GIAO ZORA, VPT2 properties, NMR spectrum
   Ute Becker             : All parallelization in ORCA, NUMFREQ, NUMCALC
   Giovanni Bistoni       : ED, misc. LED, open-shell LED, HFLD
   Martin Brehm           : Molecular dynamics
   Dmytro Bykov           : pre 5.0 version of the SCF Hessian
   Marcos Casanova-Páez   : Triplet and SCS-CIS(D). UHF-(DLPNO)-IP/EA/STEOM-CCSD. UHF-CVS-IP/STEOM-CCSD
   Vijay G. Chilkuri      : MRCI spin determinant printing, contributions to CSF-ICE
   Pauline Colinet        : FMM embedding
   Dipayan Datta          : RHF DLPNO-CCSD density
   Achintya Kumar Dutta   : EOM-CC, STEOM-CC
   Nicolas Foglia         : Exact transition moments, OPA infrastructure, MCD improvements
   Dmitry Ganyushin       : Spin-Orbit,Spin-Spin,Magnetic field MRCI
   Miquel Garcia          : C-PCM and meta-GGA Hessian, CCSD/C-PCM, Gaussian charge scheme
   Tiago L. C. Gouveia    : GS-ROHF, GS-ROCIS
   Yang Guo               : DLPNO-NEVPT2, F12-NEVPT2, CIM, IAO-localization
   Andreas Hansen         : Spin unrestricted coupled pair/coupled cluster methods
   Ingolf Harden          : AUTO-CI MPn and infrastructure 
   Benjamin Helmich-Paris : MC-RPA, TRAH-(SCF,CASSCF), AVAS, COSX integrals, SCF dyn. polar.
   Lee Huntington         : MR-EOM, pCC
   Robert Izsak           : Overlap fitted RIJCOSX, COSX-SCS-MP3, EOM
   Riya Kayal             : Wick's Theorem for AUTO-CI, AUTO-CI UHF-CCSDT
   Emily Kempfer          : AUTO-CI, RHF CISDT and CCSDT
   Christian Kollmar      : KDIIS, OOCD, Brueckner-CCSD(T), CCSD density, CASPT2, CASPT2-K, improved NEVPT2
   Axel Koslowski         : Symmetry handling
   Simone Kossmann        : Meta GGA functionals, TD-DFT gradient, OOMP2, (MP2 Hessian; deprecated post 5.0)
   Lucas Lang             : DCDCAS
   Marvin Lechner         : AUTO-CI (C++ implementation), FIC-MRCC
   Spencer Leger          : CASSCF response
   Dagmar Lenk            : GEPOL surface, SMD, ORCA-2-JSON
   Dimitrios Liakos       : Extrapolation schemes; Compound Job, initial MDCI parallelization
   Dimitrios Manganas     : Further ROCIS development; embedding schemes. LFT, Crystal Embedding
   Dimitrios Pantazis     : SARC Basis sets
   Anastasios Papadopoulos: AUTO-CI, single reference methods and gradients
   Taras Petrenko         : pre 6.0 DFT Hessian and TD-DFT gradient, (ASA, deprecated), ECA, 1-Electron XAS/XES, NRVS
   Peter Pinski           : DLPNO-MP2, DLPNO-MP2 Gradient
   Christoph Reimann      : Effective Core Potentials
   Marius Retegan         : Local ZFS, SOC
   Christoph Riplinger    : Optimizer, TS searches, QM/MM, DLPNO-CCSD(T), (RO)-DLPNO pert. Triples
   Michael Roemelt        : Original ROCIS implementation
   Masaaki Saitow         : Open-shell DLPNO-CCSD energy and density
   Barbara Sandhoefer     : DKH picture change effects
   Kantharuban Sivalingam : CASSCF convergence/infrastructure, NEVPT2 and variants, FIC-MRCI
   Bernardo de Souza      : ESD, SOC TD-DFT
   Georgi Stoychev        : AutoAux, RI-MP2 NMR, DLPNO-MP2 response, X2C
   Van Anh Tran           : RI-MP2 g-tensors
   Willem Van den Heuvel  : Paramagnetic NMR
   Zikuan Wang            : NOTCH, Electric field optimization 
   Frank Wennmohs         : Technical directorship and infrastructure
   Hang Xu                : AUTO-CI-Response properties 


 We gratefully acknowledge several colleagues who have allowed us to
 interface, adapt or use parts of their codes:
   Stefan Grimme, W. Hujo, H. Kruse, P. Pracht,  : VdW corrections, initial TS optimization,
                  C. Bannwarth, S. Ehlert,         DFT functionals, gCP, sTDA/sTD-DF
                  L. Wittmann, M. Mueller
   Ed Valeev, F. Pavosevic, A. Kumar             : LibInt (2-el integral package), F12 methods
   Garnet Chan, S. Sharma, J. Yang, R. Olivares  : DMRG
   Ulf Ekstrom                                   : XCFun DFT Library
   Mihaly Kallay                                 : mrcc  (arbitrary order and MRCC methods)
   Frank Weinhold                                : gennbo (NPA and NBO analysis)
   Simon Mueller                                 : openCOSMO-RS
   Christopher J. Cramer and Donald G. Truhlar   : smd solvation model
   Lars Goerigk                                  : TD-DFT with DH, B97 family of functionals
   V. Asgeirsson, H. Jonsson                     : NEB implementation
   FAccTs GmbH                                   : IRC, NEB, NEB-TS, DLPNO-Multilevel, CI-OPT
                                                   MM, QMMM, 2- and 3-layer-ONIOM, Crystal-QMMM,
                                                   LR-CPCM, SF, NACMEs, symmetry and pop. for TD-DFT,
                                                   nearIR, NL-DFT gradient (VV10), updates on ESD,
                                                   ML-optimized integration grids, MBIS, APM,
                                                   GOAT, DOCKER, SOLVATOR, interface openCOSMO-RS
   S Lehtola, MJT Oliveira, MAL Marques          : LibXC Library
   Liviu Ungur et al                             : ANISO software


 Your calculation uses the libint2 library for the computation of 2-el integrals
 For citations please refer to: http://libint.valeyev.net

 Your ORCA version has been built with support for libXC version: 6.2.2
 For citations please refer to: https://libxc.gitlab.io

 This ORCA versions uses:
   CBLAS   interface :  Fast vector & matrix operations
   LAPACKE interface :  Fast linear algebra routines
   SCALAPACK package :  Parallel linear algebra routines
   Shared memory     :  Shared parallel matrices
   BLAS/LAPACK       :  OpenBLAS 0.3.27  USE64BITINT DYNAMIC_ARCH NO_AFFINITY SkylakeX SINGLE_THREADED
        Core in use  :  SkylakeX
   Copyright (c) 2011-2014, The OpenBLAS Project


Your calculation utilizes the geometrical counterpoise correction gCP
Please cite in your paper:
H.Kruse, S. Grimme J.Chem.Phys., 136, (2012), 154101 
   

Your calculation utilizes the atom-pairwise dispersion correction
based on EEQ partial charges (D4)


Your calculation utilizes the SMD solvation module
Please cite in your paper:
A.V. Marenich, C.J. Cramer, D.G. Truhlar J. Phys. Chem. B, 113, (2009), 6378 

================================================================================

----- Orbital basis set information -----
Your calculation utilizes the basis: def2-mTZVPP
   Stefan Grimme, Andreas Hansen, Sebastian Ehlert, and Jan-Michael Mewes 
   J. Chem. Phys. 154, 064103 (2021). DOI: 10.1063/5.0040021

----- AuxJ basis set information -----
Your calculation utilizes the auxiliary basis: def2/J
   F. Weigend, Phys. Chem. Chem. Phys. 8, 1057 (2006).

================================================================================
                                        WARNINGS
                       Please study these warnings very carefully!
================================================================================

Using LibXC functional ID 497 : Re-regularized SCAN exchange by Furness et al
[ 1]  J. W. Furness, A. D. Kaplan, J. Ning, J. P. Perdew, and J. Sun.,  J. Phys. Chem. Lett. 11, 8208-8215 (2020)
[ 2]  J. W. Furness, A. D. Kaplan, J. Ning, J. P. Perdew, and J. Sun.,  J. Phys. Chem. Lett. 11, 9248-9248 (2020)
Using LibXC functional ID 498 : Re-regularized SCAN correlation by Furness et al
[ 1]  J. W. Furness, A. D. Kaplan, J. Ning, J. P. Perdew, and J. Sun.,  J. Phys. Chem. Lett. 11, 8208-8215 (2020)
[ 2]  J. W. Furness, A. D. Kaplan, J. Ning, J. P. Perdew, and J. Sun.,  J. Phys. Chem. Lett. 11, 9248-9248 (2020)
Using LibXC functional ID 497 : Re-regularized SCAN exchange by Furness et al
[ 1]  J. W. Furness, A. D. Kaplan, J. Ning, J. P. Perdew, and J. Sun.,  J. Phys. Chem. Lett. 11, 8208-8215 (2020)
[ 2]  J. W. Furness, A. D. Kaplan, J. Ning, J. P. Perdew, and J. Sun.,  J. Phys. Chem. Lett. 11, 9248-9248 (2020)
Using LibXC functional ID 498 : Re-regularized SCAN correlation by Furness et al
[ 1]  J. W. Furness, A. D. Kaplan, J. Ning, J. P. Perdew, and J. Sun.,  J. Phys. Chem. Lett. 11, 8208-8215 (2020)
[ 2]  J. W. Furness, A. D. Kaplan, J. Ning, J. P. Perdew, and J. Sun.,  J. Phys. Chem. Lett. 11, 9248-9248 (2020)

================================================================================
                                       INPUT FILE
================================================================================
NAME = sp_solv.inp
|  1> ! r2scan-3c def2/J RI DEFGRID2 scfconv6 printgap
|  2> %output
|  3>     printlevel normal
|  4> end
|  5> %cpcm
|  6>     smd true
|  7>     smdsolvent "water"
|  8> end
|  9> * xyz 0 1
| 10> C -2.4152752005 -0.0792903961 7.8819e-06
| 11> C -1.8415237909 -1.3402231586 1.73474e-05
| 12> C -0.4635201729 -1.4689848999 0.0001008299
| 13> C 0.3267854683 -0.3351059892 1.44322e-05
| 14> C -0.2322116869 0.9426275442 4.26231e-05
| 15> C -1.6213762942 1.0506558379 -8.9649e-06
| 16> O 0.5081540092 2.0703408157 2.69809e-05
| 17> Cl 2.0730491099 -0.4962033769 -3.14254e-05
| 18> H -3.4882638492 0.0262390746 -0.0002683867
| 19> H -2.4592782342 -2.223181533 -0.0004483077
| 20> H -0.0001806088 -2.4426502291 -0.0001576641
| 21> H -2.0487527425 2.0400670469 -0.0005280336
| 22> H 1.4551049744 1.8501836388 4.2731e-06
| 23> *
| 24> 
| 25>                          ****END OF INPUT****
================================================================================

                       ****************************
                       * Single Point Calculation *
                       ****************************

---------------------------------
CARTESIAN COORDINATES (ANGSTROEM)
---------------------------------
  C     -2.415275   -0.079290    0.000008
  C     -1.841524   -1.340223    0.000017
  C     -0.463520   -1.468985    0.000101
  C      0.326785   -0.335106    0.000014
  C     -0.232212    0.942628    0.000043
  C     -1.621376    1.050656   -0.000009
  O      0.508154    2.070341    0.000027
  Cl     2.073049   -0.496203   -0.000031
  H     -3.488264    0.026239   -0.000268
  H     -2.459278   -2.223182   -0.000448
  H     -0.000181   -2.442650   -0.000158
  H     -2.048753    2.040067   -0.000528
  H      1.455105    1.850184    0.000004

----------------------------
CARTESIAN COORDINATES (A.U.)
----------------------------
  NO LB      ZA    FRAG     MASS         X           Y           Z
   0 C     6.0000    0    12.011   -4.564209   -0.149837    0.000015
   1 C     6.0000    0    12.011   -3.479976   -2.532655    0.000033
   2 C     6.0000    0    12.011   -0.875926   -2.775979    0.000191
   3 C     6.0000    0    12.011    0.617535   -0.633259    0.000027
   4 C     6.0000    0    12.011   -0.438816    1.781308    0.000081
   5 C     6.0000    0    12.011   -3.063957    1.985452   -0.000017
   6 O     8.0000    0    15.999    0.960272    3.912377    0.000051
   7 Cl   17.0000    0    35.453    3.917495   -0.937688   -0.000059
   8 H     1.0000    0     1.008   -6.591863    0.049585   -0.000507
   9 H     1.0000    0     1.008   -4.647362   -4.201204   -0.000847
  10 H     1.0000    0     1.008   -0.000341   -4.615940   -0.000298
  11 H     1.0000    0     1.008   -3.871582    3.855168   -0.000998
  12 H     1.0000    0     1.008    2.749750    3.496340    0.000008

--------------------------------
INTERNAL COORDINATES (ANGSTROEM)
--------------------------------
 C      0   0   0     0.000000000000     0.00000000     0.00000000
 C      1   0   0     1.385331047675     0.00000000     0.00000000
 C      2   1   0     1.384006345438   119.80481384     0.00000000
 C      3   2   1     1.382123148676   119.53796360     0.00000000
 C      4   3   2     1.394661536966   121.49481991     0.00000000
 C      1   2   3     1.380961246900   120.44161576     0.00000000
 O      5   4   3     1.349028756893   123.08536859   179.99663754
 Cl     4   3   2     1.753678726677   119.60545933   180.00568998
 H      1   2   3     1.078165657842   120.08358142   179.98701845
 H      2   1   3     1.077606727881   120.55520742   180.02522347
 H      3   2   1     1.078289289461   120.78670485   180.01651900
 H      6   1   2     1.077768731449   121.54622002   179.96809285
 H      7   5   4     0.972206415094   110.19745706     0.00000000

---------------------------
INTERNAL COORDINATES (A.U.)
---------------------------
 C      0   0   0     0.000000000000     0.00000000     0.00000000
 C      1   0   0     2.617896284925     0.00000000     0.00000000
 C      2   1   0     2.615392960487   119.80481384     0.00000000
 C      3   2   1     2.611834234351   119.53796360     0.00000000
 C      4   3   2     2.635528354379   121.49481991     0.00000000
 C      1   2   3     2.609638558199   120.44161576     0.00000000
 O      5   4   3     2.549294897311   123.08536859   179.99663754
 Cl     4   3   2     3.313972520304   119.60545933   180.00568998
 H      1   2   3     2.037437820320   120.08358142   179.98701845
 H      2   1   3     2.036381595766   120.55520742   180.02522347
 H      3   2   1     2.037671450221   120.78670485   180.01651900
 H      6   1   2     2.036687738142   121.54622002   179.96809285
 H      7   5   4     1.837203870169   110.19745706     0.00000000

---------------------
BASIS SET INFORMATION
---------------------
There are 4 groups of distinct atoms

 Group   1 Type C   : 11s6p1d contracted to 5s3p1d pattern {62111/411/1}
 Group   2 Type O   : 11s6p2d contracted to 5s3p2d pattern {62111/411/11}
 Group   3 Type Cl  : 14s9p2d contracted to 5s4p2d pattern {73211/6111/11}
 Group   4 Type H   : 4s1p contracted to 2s1p pattern {31/1}

Atom   0C    basis set group =>   1
Atom   1C    basis set group =>   1
Atom   2C    basis set group =>   1
Atom   3C    basis set group =>   1
Atom   4C    basis set group =>   1
Atom   5C    basis set group =>   1
Atom   6O    basis set group =>   2
Atom   7Cl   basis set group =>   3
Atom   8H    basis set group =>   4
Atom   9H    basis set group =>   4
Atom  10H    basis set group =>   4
Atom  11H    basis set group =>   4
Atom  12H    basis set group =>   4
---------------------------------
AUXILIARY/J BASIS SET INFORMATION
---------------------------------
There are 4 groups of distinct atoms

 Group   1 Type C   : 12s5p4d2f1g contracted to 6s4p3d1f1g pattern {711111/2111/211/2/1}
 Group   2 Type O   : 12s5p4d2f1g contracted to 6s4p3d1f1g pattern {711111/2111/211/2/1}
 Group   3 Type Cl  : 14s5p5d2f1g contracted to 8s4p3d1f1g pattern {71111111/2111/311/2/1}
 Group   4 Type H   : 5s2p1d contracted to 3s1p1d pattern {311/2/1}

Atom   0C    basis set group =>   1
Atom   1C    basis set group =>   1
Atom   2C    basis set group =>   1
Atom   3C    basis set group =>   1
Atom   4C    basis set group =>   1
Atom   5C    basis set group =>   1
Atom   6O    basis set group =>   2
Atom   7Cl   basis set group =>   3
Atom   8H    basis set group =>   4
Atom   9H    basis set group =>   4
Atom  10H    basis set group =>   4
Atom  11H    basis set group =>   4
Atom  12H    basis set group =>   4

Checking for AutoStart:
The File: sp_solv.gbw exists
Trying to determine its content:
     ... Fine, the file contains calculation information
     ... Fine, the calculation information was read
     ... Fine, the file contains a basis set
     ... Fine, the basis set was read
     ... Fine, the file contains a geometry
     ... Fine, the geometry was read
     ... Fine, the file contains a set of orbitals
     ... Fine, the orbitals can be read
     => possible old guess file was deleted
     => GBW file was renamed to GES file
     => GES file is set as startup file
     => Guess is set to MORead
     ... now leaving AutoStart

------------------------------------------------------------------------------
                             ORCA STARTUP CALCULATIONS
                           -- RI-GTO INTEGRALS CHOSEN --
------------------------------------------------------------------------------
------------------------------------------------------------------------------
                   ___                                                        
                  /   \      - P O W E R E D   B Y -                         
                 /     \                                                     
                 |  |  |   _    _      __       _____    __    __             
                 |  |  |  | |  | |    /  \     |  _  \  |  |  /  |          
                  \  \/   | |  | |   /    \    | | | |  |  | /  /          
                 / \  \   | |__| |  /  /\  \   | |_| |  |  |/  /          
                |  |  |   |  __  | /  /__\  \  |    /   |      \           
                |  |  |   | |  | | |   __   |  |    \   |  |\   \          
                \     /   | |  | | |  |  |  |  | |\  \  |  | \   \       
                 \___/    |_|  |_| |__|  |__|  |_| \__\ |__|  \__/        
                                                                              
                      - O R C A' S   B I G   F R I E N D -                    
                                      &                                       
                       - I N T E G R A L  F E E D E R -                       
                                                                              
 v1 FN, 2020, v2 2021, v3 2022-2024                                           
------------------------------------------------------------------------------


----------------------
SHARK INTEGRAL PACKAGE
----------------------

Number of atoms                             ...     13
Number of basis functions                   ...    190
Number of shells                            ...     90
Maximum angular momentum                    ...      2
Integral batch strategy                     ... SHARK/LIBINT Hybrid
RI-J (if used) integral strategy            ... SPLIT-RIJ (Revised 2003 algorithm where possible)
Printlevel                                  ...      1
Contraction scheme used                     ... SEGMENTED contraction
Prescreening option                         ... SCHWARTZ
   Thresh                                   ... 1.000e-10
   Tcut                                     ... 1.000e-11
   Tpresel                                  ... 1.000e-11 
Coulomb Range Separation                    ... NOT USED
Exchange Range Separation                   ... NOT USED
Multipole approximations                    ... NOT USED
Finite Nucleus Model                        ... NOT USED
CABS basis                                  ... NOT available
Auxiliary Coulomb fitting basis             ... AVAILABLE
   # of basis functions in Aux-J            ...    449
   # of shells in Aux-J                     ...    147
   Maximum angular momentum in Aux-J        ...      4
Auxiliary J/K fitting basis                 ... NOT available
Auxiliary Correlation fitting basis         ... NOT available
Auxiliary 'external' fitting basis          ... NOT available

Checking pre-screening integrals            ... done (  0.0 sec) Dimension = 90
Check shell pair data                       ... done (  0.0 sec)
Shell pair information
Shell pair cut-off parameter TPreSel        ...   1.0e-11
Total number of shell pairs                 ...      4095
Shell pairs after pre-screening             ...      3716
Total number of primitive shell pairs       ...     15962
Primitive shell pairs kept                  ...     10238
          la=0 lb=0:   1098 shell pairs
          la=1 lb=0:   1371 shell pairs
          la=1 lb=1:    440 shell pairs
          la=2 lb=0:    464 shell pairs
          la=2 lb=1:    288 shell pairs
          la=2 lb=2:     55 shell pairs

Calculating one electron integrals          ... done (  0.0 sec)
Calculating RI/J V-Matrix + Cholesky decomp.... done (  0.2 sec)
Calculating Nuclear repulsion               ... done (  0.0 sec) ENN=    407.212721617129 Eh

Diagonalization of the overlap matrix:
Smallest eigenvalue                        ... 2.795e-05
Time for diagonalization                   ...    0.004 sec
Threshold for overlap eigenvalues          ... 1.000e-07
Number of eigenvalues below threshold      ... 0
Time for construction of square roots      ...    0.016 sec
Total time needed                          ...    0.027 sec

-------------------
DFT GRID GENERATION
-------------------

General Integration Accuracy     IntAcc      ... 4.388
Radial Grid Type                 RadialGrid  ... OptM3 with GC (2021)
Angular Grid (max. ang.)         AngularGrid ... 4 (Lebedev-302)
Angular grid pruning method      GridPruning ... 4 (adaptive)
Weight generation scheme         WeightScheme... mBecke (2022)
Basis function cutoff            BFCut       ... 1.0000e-10
Integration weight cutoff        WCut        ... 1.0000e-14
Partially contracted basis set               ... off
Rotationally invariant grid construction     ... off
Angular grids for H and He will be reduced by one unit
Diffuse basis detected: some atoms will have their outermost
                        angular grid increased by 1.

Total number of grid points                  ...    65878
Total number of batches                      ...     1036
Average number of points per batch           ...       63
Average number of grid points per atom       ...     5068
Initializing property integral containers    ... done (  0.0 sec)

SHARK setup successfully completed in   1.2 seconds

Maximum memory used throughout the entire STARTUP-calculation: 30.6 MB
-------------------------------------------------------------------------------
                                 ORCA GUESS
                   Start orbitals & Density for SCF / CASSCF
-------------------------------------------------------------------------------

------------
SCF SETTINGS
------------
Hamiltonian:
 Density Functional     Method          .... DFT(GTOs)
  Functional kind                       .... Exchange
  Functional name                       .... Re-regularized SCAN exchange by Furness et al
  Functional family                     .... MGGA
  Functional refs                              
    [ 0] J. W. Furness, A. D. Kaplan, J. Ning, J. P. Perdew, and J. Sun.,  J. Phys. Chem. Lett. 11, 8208-8215 (2020), doi: 10.1021/acs.jpclett.0c02405
    [ 1] J. W. Furness, A. D. Kaplan, J. Ning, J. P. Perdew, and J. Sun.,  J. Phys. Chem. Lett. 11, 9248-9248 (2020), doi: 10.1021/acs.jpclett.0c03077
  Functional external parameters        .... 6
    Parameter  0 _c1        =  6.670000e-01 : c1 parameter        
    Parameter  1 _c2        =  8.000000e-01 : c2 parameter        
    Parameter  2 _d         =  1.240000e+00 : d parameter         
    Parameter  3 _k1        =  6.500000e-02 : k1 parameter        
    Parameter  4 _eta       =  1.000000e-03 : eta parameter       
    Parameter  5 _dp2       =  3.610000e-01 : dp2 parameter       
  Functional kind                       .... Correlation
  Functional name                       .... Re-regularized SCAN correlation by Furness et al
  Functional family                     .... MGGA
  Functional refs                              
    [ 0] J. W. Furness, A. D. Kaplan, J. Ning, J. P. Perdew, and J. Sun.,  J. Phys. Chem. Lett. 11, 8208-8215 (2020), doi: 10.1021/acs.jpclett.0c02405
    [ 1] J. W. Furness, A. D. Kaplan, J. Ning, J. P. Perdew, and J. Sun.,  J. Phys. Chem. Lett. 11, 9248-9248 (2020), doi: 10.1021/acs.jpclett.0c03077
  Functional external parameters        .... 1
    Parameter  0 _eta       =  1.000000e-03 : Regularization parameter
 Gradients option       PostSCFGGA      .... off
 RI-approximation to the Coulomb term is turned on
   Number of AuxJ basis functions       .... 449


General Settings:
 Integral files         IntName         .... sp_solv
 Hartree-Fock type      HFTyp           .... RHF
 Total Charge           Charge          ....    0
 Multiplicity           Mult            ....    1
 Number of Electrons    NEL             ....   66
 Basis Dimension        Dim             ....  190
 Nuclear Repulsion      ENuc            ....    407.2127216171 Eh

Convergence Acceleration:
 AO-DIIS                CNVDIIS         .... on
   Start iteration      DIISMaxIt       ....    12
   Startup error        DIISStart       ....  0.200000
   # of expansion vecs  DIISMaxEq       ....     5
   Bias factor          DIISBfac        ....   1.050
   Max. coefficient     DIISMaxC        ....  10.000
 MO-DIIS                CNVKDIIS        .... off
 Trust-Rad. Augm. Hess. CNVTRAH         .... auto
   Auto Start mean grad. ratio tolernc. ....  1.125000
   Auto Start start iteration           ....     1
   Auto Start num. interpolation iter.  ....    10
   Max. Number of Micro iterations      ....    24
   Max. Number of Macro iterations      .... Maxiter - #DIIS iter
   Number of Davidson start vectors     ....     2
   Converg. threshold    (grad. norm)   ....   3.330e-04
   Grad. Scal. Fac. for Micro threshold ....   0.100
   Minimum threshold for Micro iter.    ....   1.000e-02
   NR start threshold (gradient norm)   ....   1.000e-04
   Initial trust radius                 ....   0.400
   Minimum AH scaling param. (alpha)    ....   1.000
   Maximum AH scaling param. (alpha)    .... 1000.000
   Quad. conv. algorithm                .... NR
   White noise on init. David. guess    .... on
   Maximum white noise                  ....   0.010
   Pseudo random numbers                .... off
   Inactive MOs                         .... canonical
   Orbital update algorithm             .... Taylor
   Preconditioner                       .... Diag
   Full preconditioner red. dimension   ....   250
   COSX micro iterations for RIJONX calc.... off
 SOSCF                  CNVSOSCF        .... on
   Start iteration      SOSCFMaxIt      ....   150
   Startup grad/error   SOSCFStart      ....  0.003300
   Hessian update       SOSCFHessUp     .... L-BFGS
 Level Shifting         CNVShift        .... on
   Level shift para.    LevelShift      ....    0.2500
   Turn off err/grad.   ShiftErr        ....    0.0010
 Zerner damping         CNVZerner       .... off
 Static damping         CNVDamp         .... on
   Fraction old density DampFac         ....    0.7000
   Max. Damping (<1)    DampMax         ....    0.9800
   Min. Damping (>=0)   DampMin         ....    0.0000
   Turn off err/grad.   DampErr         ....    0.1000

SCF Procedure:
 Maximum # iterations   MaxIter         ....   125
 SCF integral mode      SCFMode         .... Direct
   Integral package                     .... SHARK and LIBINT hybrid scheme
 Reset frequency        DirectResetFreq ....    20
 Integral Threshold     Thresh          ....  1.000e-10 Eh
 Primitive CutOff       TCut            ....  1.000e-11 Eh

Convergence Tolerance:
 Convergence Check Mode ConvCheckMode   .... Total+1el-Energy
 Convergence forced     ConvForced      .... 0
 Energy Change          TolE            ....  1.000e-06 Eh
 1-El. energy change                    ....  1.000e-03 Eh
 Orbital Gradient       TolG            ....  3.330e-04
 Orbital Rotation angle TolX            ....  3.330e-04
 DIIS Error             TolErr          ....  1.000e-06

---------------------
INITIAL GUESS: MOREAD
---------------------
Guess MOs are being read from file: sp_solv.ges
Input Geometry matches current geometry (good)
Atom 0: N(Shells)= 9 and 6 - projection required
Input basis set needs projection
NBasis(read)= 126
NBasis(calc)= 190
Basis set overlap was calculated
Using GuessMode=FMatrix for the initial guess
C*T matrix was formed
Effective Fockian was calculated
Effective Fockian was diagonalized
Initial density was built
                      ------------------
                      INITIAL GUESS DONE (   0.0 sec)
                      ------------------
             **** ENERGY FILE WAS UPDATED (sp_solv.en.tmp) ****
Finished Guess after   0.3 sec
Maximum memory used throughout the entire GUESS-calculation: 13.1 MB

-------------------------------------------------------------------------------------------
                                      ORCA LEAN-SCF
                              memory conserving SCF solver
-------------------------------------------------------------------------------------------

--------------------
CPCM SOLVATION MODEL
--------------------
CPCM parameters:
  Epsilon                                         ...      78.3550
  Refrac                                          ...       1.3328
  Rsolv                                           ...       1.3000
  Surface type                                    ... GAUSSIAN VDW
  Discretization scheme                           ... Constant charge density
    Threshold for H atoms                         ...       5.0000 (charges/Ang^2)
    Threshold for non-H atoms                     ...       5.0000 (charges/Ang^2)
  Epsilon function type                           ...         CPCM
Solvent:                                          ... WATER
SMD-CDS solvent descriptors:
  Soln                                            ...       1.3328
  Soln25                                          ...       1.3323
  Sola                                            ...       0.0000
  Solb                                            ...       0.0000
  Solg                                            ...       0.0000
  Solc                                            ...       0.0000
  Solh                                            ...       0.0000
Radii:
  Scheme                                          ... Element-dependent radii
  Radius for C  used is    3.4960 Bohr (=   1.8500 Ang.)
  Radius for O  used is    2.8724 Bohr (=   1.5200 Ang.)
  Radius for Cl used is    4.4975 Bohr (=   2.3800 Ang.)
  Radius for H  used is    2.2677 Bohr (=   1.2000 Ang.)
Calculating surface                               ...        done! (  0.0s)
Cavity surface points                             ...         1095
Cavity Volume                                     ...     922.4942
Cavity Surface-area                               ...     536.7232
Calculating surface distance matrix               ...        done! (  0.0s)
Performing Cholesky decomposition & store         ...        done! (  0.1s)
Overall time for CPCM initialization              ...                 0.1s

----------------------------------------D-I-I-S--------------------------------------------
Iteration    Energy (Eh)           Delta-E    RMSDP     MaxDP     DIISErr   Damp  Time(sec)
-------------------------------------------------------------------------------------------
               ***  Starting incremental Fock matrix formation  ***
    1    -766.8226357696344166     0.00e+00  1.76e-02  5.84e-01  6.20e-01  0.700   2.7
    2    -766.8736824931422689    -5.10e-02  1.28e-02  4.02e-01  4.36e-01  0.700   3.3
    3    -766.9098232216497308    -3.61e-02  9.04e-03  2.76e-01  3.06e-01  0.700   2.7
    4    -766.9352194363530089    -2.54e-02  6.34e-03  1.91e-01  2.14e-01  0.700   2.6
                               ***Turning on AO-DIIS***
    5    -766.9530444515467025    -1.78e-02  4.45e-03  1.32e-01  1.50e-01  0.700   2.2
    6    -766.9655456604455139    -1.25e-02  3.12e-03  9.17e-02  1.05e-01  0.700   2.3
    7    -766.9743126346122608    -8.77e-03  2.19e-03  6.40e-02  7.34e-02  0.700   2.3
    8    -766.9804570568869622    -6.14e-03  5.10e-03  1.49e-01  5.14e-02  0.000   2.2
                              *** Initializing SOSCF ***
---------------------------------------S-O-S-C-F--------------------------------------
Iteration    Energy (Eh)           Delta-E    RMSDP     MaxDP     MaxGrad    Time(sec)
--------------------------------------------------------------------------------------
    9    -766.9948199570380893    -1.44e-02  1.96e-05  3.37e-04  1.57e-04     2.3
               *** Restarting incremental Fock matrix formation ***
   10    -766.9948200891999477    -1.32e-07  1.47e-05  3.16e-04  3.97e-05     2.4
                  *** Gradient check signals convergence ***

               *****************************************************
               *                     SUCCESS                       *
               *           SCF CONVERGED AFTER  10 CYCLES          *
               *****************************************************


SMD CDS free energy correction energy :                 3.30989     Kcal/mol
Total Energy after SMD CDS correction =              -766.989545450 Eh
             **** ENERGY FILE WAS UPDATED (sp_solv.en.tmp) ****

----------------
TOTAL SCF ENERGY
----------------

Total Energy       :       -766.98954545019762 Eh          -20870.84659 eV

Components:
Nuclear Repulsion  :        407.21272161712938 Eh           11080.82149 eV
Electronic Energy  :      -1174.19640244088441 Eh          -31951.50849 eV
One Electron Energy:      -1858.86764257271625 Eh          -50582.36011 eV
Two Electron Energy:        684.67124013183195 Eh           18630.85162 eV
CPCM Dielectric    :         -0.01113926544483 Eh              -0.30311 eV
SMD CDS (Gcds)     :          0.00527463900235 Eh               0.14353 eV

Virial components:
Potential Energy   :      -1531.73023076703930 Eh          -41680.49857 eV
Kinetic Energy     :        764.74068531684168 Eh           20809.65199 eV
Virial Ratio       :          2.00294068326236

DFT components:
N(Alpha)           :       33.000029763231 electrons
N(Beta)            :       33.000029763231 electrons
N(Total)           :       66.000059526461 electrons
E(X)               :      -68.884148350009 Eh       
E(C)               :       -2.267575501555 Eh       
E(XC)              :      -71.151723851564 Eh       

CPCM Solvation Model Properties:
Surface-charge          :         -0.03041246421458
Corrected charge        :         -0.00000000000000
Outlying charge corr.   :          0.00007141117766 Eh               0.00194 eV
Free-energy (cav+disp)  :          0.00527463900235 Eh               0.14353 eV

---------------
SCF CONVERGENCE
---------------

  Last Energy change         ...    1.3216e-07  Tolerance :   1.0000e-06
  Last MAX-Density change    ...    3.1599e-04  Tolerance :   1.0000e-05
  Last RMS-Density change    ...    1.4722e-05  Tolerance :   1.0000e-06
  Last DIIS Error            ...    1.5666e-04  Tolerance :   1.0000e-06
  Last Orbital Gradient      ...    3.9658e-05  Tolerance :   3.3300e-04
  Last Orbital Rotation      ...    2.1101e-04  Tolerance :   3.3300e-04


----------------
ORBITAL ENERGIES
----------------

  NO   OCC          E(Eh)            E(eV) 
   0   2.0000    -101.233088     -2754.6924 
   1   2.0000     -18.994522      -516.8672 
   2   2.0000     -10.112973      -275.1880 
   3   2.0000     -10.101328      -274.8711 
   4   2.0000     -10.047943      -273.4184 
   5   2.0000     -10.040840      -273.2251 
   6   2.0000     -10.040028      -273.2031 
   7   2.0000     -10.036118      -273.0967 
   8   2.0000      -9.388639      -255.4779 
   9   2.0000      -7.134652      -194.1437 
  10   2.0000      -7.124831      -193.8765 
  11   2.0000      -7.124802      -193.8757 
  12   2.0000      -1.042536       -28.3689 
  13   2.0000      -0.861003       -23.4291 
  14   2.0000      -0.811251       -22.0753 
  15   2.0000      -0.724851       -19.7242 
  16   2.0000      -0.705296       -19.1921 
  17   2.0000      -0.594987       -16.1904 
  18   2.0000      -0.587559       -15.9883 
  19   2.0000      -0.523815       -14.2537 
  20   2.0000      -0.477949       -13.0056 
  21   2.0000      -0.449889       -12.2421 
  22   2.0000      -0.419611       -11.4182 
  23   2.0000      -0.406700       -11.0669 
  24   2.0000      -0.403834       -10.9889 
  25   2.0000      -0.370975       -10.0948 
  26   2.0000      -0.347142        -9.4462 
  27   2.0000      -0.339219        -9.2306 
  28   2.0000      -0.321953        -8.7608 
  29   2.0000      -0.315887        -8.5957 
  30   2.0000      -0.301383        -8.2011 
  31   2.0000      -0.239974        -6.5300 
  32   2.0000      -0.215288        -5.8583 
  33   0.0000      -0.043793        -1.1917 
  34   0.0000      -0.027314        -0.7433 
  35   0.0000      -0.002296        -0.0625 
  36   0.0000       0.072784         1.9806 
  37   0.0000       0.111429         3.0321 
  38   0.0000       0.117478         3.1967 
  39   0.0000       0.130943         3.5631 
  40   0.0000       0.139360         3.7922 
  41   0.0000       0.151238         4.1154 
  42   0.0000       0.157808         4.2942 
  43   0.0000       0.186766         5.0821 
*Only the first 10 virtual orbitals were printed.

                    ********************************
                    * MULLIKEN POPULATION ANALYSIS *
                    ********************************

-----------------------
MULLIKEN ATOMIC CHARGES
-----------------------
   0 C :   -0.154238
   1 C :   -0.207682
   2 C :   -0.182036
   3 C :   -0.001427
   4 C :    0.346534
   5 C :   -0.305395
   6 O :   -0.445303
   7 Cl:   -0.176673
   8 H :    0.186926
   9 H :    0.186968
  10 H :    0.195638
  11 H :    0.193139
  12 H :    0.363547
Sum of atomic charges:    0.0000000

--------------------------------
MULLIKEN REDUCED ORBITAL CHARGES
--------------------------------
  0 C s       :     3.208504  s :     3.208504
      pz      :     0.978557  p :     2.907425
      px      :     1.040983
      py      :     0.887885
      dz2     :     0.003228  d :     0.038309
      dxz     :     0.002487
      dyz     :     0.007569
      dx2y2   :     0.013085
      dxy     :     0.011939

  1 C s       :     3.230998  s :     3.230998
      pz      :     1.015934  p :     2.939269
      px      :     0.932378
      py      :     0.990957
      dz2     :     0.003249  d :     0.037415
      dxz     :     0.005332
      dyz     :     0.003809
      dx2y2   :     0.012277
      dxy     :     0.012748

  2 C s       :     3.208160  s :     3.208160
      pz      :     0.989452  p :     2.936483
      px      :     0.964905
      py      :     0.982126
      dz2     :     0.003375  d :     0.037393
      dxz     :     0.006833
      dyz     :     0.003704
      dx2y2   :     0.009891
      dxy     :     0.013590

  3 C s       :     3.195924  s :     3.195924
      pz      :     1.104858  p :     2.754244
      px      :     0.711634
      py      :     0.937752
      dz2     :     0.003925  d :     0.051259
      dxz     :     0.007291
      dyz     :     0.007218
      dx2y2   :     0.017570
      dxy     :     0.015255

  4 C s       :     3.100503  s :     3.100503
      pz      :     0.966082  p :     2.478428
      px      :     0.817045
      py      :     0.695301
      dz2     :     0.004968  d :     0.074535
      dxz     :     0.010410
      dyz     :     0.014603
      dx2y2   :     0.022061
      dxy     :     0.022493

  5 C s       :     3.268907  s :     3.268907
      pz      :     1.034237  p :     3.000913
      px      :     0.921299
      py      :     1.045377
      dz2     :     0.003373  d :     0.035575
      dxz     :     0.005715
      dyz     :     0.003211
      dx2y2   :     0.013931
      dxy     :     0.009346

  6 O s       :     3.753819  s :     3.753819
      pz      :     1.835876  p :     4.658126
      px      :     1.305329
      py      :     1.516922
      dz2     :     0.006360  d :     0.033358
      dxz     :     0.002362
      dyz     :     0.004468
      dx2y2   :     0.011128
      dxy     :     0.009040

  7 Cls       :     5.948775  s :     5.948775
      pz      :     3.941882  p :    11.172412
      px      :     3.278959
      py      :     3.951572
      dz2     :     0.005928  d :     0.055485
      dxz     :     0.020036
      dyz     :     0.000762
      dx2y2   :     0.017432
      dxy     :     0.011328

  8 H s       :     0.793513  s :     0.793513
      pz      :     0.003928  p :     0.019561
      px      :     0.012511
      py      :     0.003122

  9 H s       :     0.793296  s :     0.793296
      pz      :     0.004201  p :     0.019736
      px      :     0.006138
      py      :     0.009397

 10 H s       :     0.784539  s :     0.784539
      pz      :     0.003948  p :     0.019824
      px      :     0.004752
      py      :     0.011123

 11 H s       :     0.787055  s :     0.787055
      pz      :     0.004168  p :     0.019806
      px      :     0.004531
      py      :     0.011107

 12 H s       :     0.593550  s :     0.593550
      pz      :     0.011067  p :     0.042903
      px      :     0.023211
      py      :     0.008626


------------------------
MULLIKEN OVERLAP CHARGES
------------------------
B(  0-C ,  1-C ) :   0.9225 B(  0-C ,  2-C ) :  -0.1417 B(  0-C ,  3-C ) :  -0.0590 
B(  0-C ,  4-C ) :  -0.1051 B(  0-C ,  5-C ) :   0.8182 B(  0-C ,  8-H ) :   0.8256 
B(  0-C ,  9-H ) :  -0.0732 B(  0-C , 11-H ) :  -0.0574 B(  1-C ,  2-C ) :   0.8109 
B(  1-C ,  3-C ) :  -0.0967 B(  1-C ,  4-C ) :  -0.1102 B(  1-C ,  5-C ) :  -0.1375 
B(  1-C ,  8-H ) :  -0.0672 B(  1-C ,  9-H ) :   0.8301 B(  2-C ,  3-C ) :   0.5507 
B(  2-C ,  4-C ) :   0.1048 B(  2-C ,  5-C ) :  -0.1710 B(  2-C ,  7-Cl) :  -0.1287 
B(  2-C ,  9-H ) :  -0.0698 B(  2-C , 10-H ) :   0.8164 B(  3-C ,  4-C ) :   0.6910 
B(  3-C ,  5-C ) :  -0.1050 B(  3-C ,  6-O ) :  -0.1732 B(  3-C ,  7-Cl) :   0.5090 
B(  3-C , 10-H ) :  -0.0725 B(  4-C ,  5-C ) :   0.8075 B(  4-C ,  6-O ) :   0.5019 
B(  4-C ,  7-Cl) :  -0.1841 B(  4-C , 11-H ) :  -0.0717 B(  4-C , 12-H ) :  -0.0776 
B(  5-C ,  8-H ) :  -0.0697 B(  5-C , 11-H ) :   0.8225 B(  6-O , 12-H ) :   0.6224 



                     *******************************
                     * LOEWDIN POPULATION ANALYSIS *
                     *******************************

----------------------
LOEWDIN ATOMIC CHARGES
----------------------
   0 C :   -0.158037
   1 C :   -0.185960
   2 C :   -0.166894
   3 C :   -0.167410
   4 C :    0.162584
   5 C :   -0.144011
   6 O :   -0.506411
   7 Cl:    0.118858
   8 H :    0.182275
   9 H :    0.181933
  10 H :    0.190352
  11 H :    0.193021
  12 H :    0.299701

-------------------------------
LOEWDIN REDUCED ORBITAL CHARGES
-------------------------------
  0 C s       :     2.904080  s :     2.904080
      pz      :     0.965367  p :     3.170687
      px      :     1.110559
      py      :     1.094762
      dz2     :     0.005434  d :     0.083269
      dxz     :     0.003621
      dyz     :     0.014197
      dx2y2   :     0.031707
      dxy     :     0.028309

  1 C s       :     2.903450  s :     2.903450
      pz      :     1.005866  p :     3.200839
      px      :     1.089234
      py      :     1.105740
      dz2     :     0.005507  d :     0.081671
      dxz     :     0.009608
      dyz     :     0.006351
      dx2y2   :     0.029274
      dxy     :     0.030931

  2 C s       :     2.905116  s :     2.905116
      pz      :     0.981414  p :     3.179255
      px      :     1.105352
      py      :     1.092489
      dz2     :     0.005834  d :     0.082524
      dxz     :     0.012660
      dyz     :     0.006374
      dx2y2   :     0.024757
      dxy     :     0.032899

  3 C s       :     2.891830  s :     2.891830
      pz      :     1.084070  p :     3.165986
      px      :     0.980566
      py      :     1.101350
      dz2     :     0.007765  d :     0.109594
      dxz     :     0.013376
      dyz     :     0.012681
      dx2y2   :     0.039446
      dxy     :     0.036327

  4 C s       :     2.782739  s :     2.782739
      pz      :     0.916315  p :     2.891053
      px      :     1.024083
      py      :     0.950655
      dz2     :     0.011149  d :     0.163625
      dxz     :     0.019293
      dyz     :     0.028079
      dx2y2   :     0.053301
      dxy     :     0.051804

  5 C s       :     2.894903  s :     2.894903
      pz      :     1.015995  p :     3.171824
      px      :     1.043621
      py      :     1.112208
      dz2     :     0.005571  d :     0.077285
      dxz     :     0.010286
      dyz     :     0.005091
      dx2y2   :     0.032068
      dxy     :     0.024268

  6 O s       :     3.477179  s :     3.477179
      pz      :     1.801843  p :     4.759559
      px      :     1.374565
      py      :     1.583151
      dz2     :     0.032247  d :     0.269673
      dxz     :     0.026407
      dyz     :     0.045048
      dx2y2   :     0.092329
      dxy     :     0.073642

  7 Cls       :     5.654774  s :     5.654774
      pz      :     3.914981  p :    11.113108
      px      :     3.311384
      py      :     3.886744
      dz2     :     0.013992  d :     0.113260
      dxz     :     0.034920
      dyz     :     0.000756
      dx2y2   :     0.042334
      dxy     :     0.021257

  8 H s       :     0.772005  s :     0.772005
      pz      :     0.008727  p :     0.045720
      px      :     0.029990
      py      :     0.007002

  9 H s       :     0.771817  s :     0.771817
      pz      :     0.009478  p :     0.046250
      px      :     0.014350
      py      :     0.022422

 10 H s       :     0.763306  s :     0.763306
      pz      :     0.008886  p :     0.046342
      px      :     0.010871
      py      :     0.026584

 11 H s       :     0.760660  s :     0.760660
      pz      :     0.009529  p :     0.046318
      px      :     0.009998
      py      :     0.026792

 12 H s       :     0.578023  s :     0.578023
      pz      :     0.028781  p :     0.122276
      px      :     0.069051
      py      :     0.024443


---------------------------------
LOEWDIN BOND ORDERS (THRESH 0.050000)
---------------------------------
B(  0-C ,  1-C ) :   1.4907 B(  0-C ,  2-C ) :   0.0897 B(  0-C ,  3-C ) :   0.1143 
B(  0-C ,  4-C ) :   0.0943 B(  0-C ,  5-C ) :   1.5225 B(  0-C ,  8-H ) :   0.8676 
B(  0-C ,  9-H ) :   0.0533 B(  0-C , 11-H ) :   0.0527 B(  1-C ,  2-C ) :   1.5054 
B(  1-C ,  3-C ) :   0.0993 B(  1-C ,  4-C ) :   0.1046 B(  1-C ,  5-C ) :   0.0907 
B(  1-C ,  8-H ) :   0.0533 B(  1-C ,  9-H ) :   0.8680 B(  1-C , 10-H ) :   0.0530 
B(  2-C ,  3-C ) :   1.4475 B(  2-C ,  4-C ) :   0.0918 B(  2-C ,  5-C ) :   0.1251 
B(  2-C ,  7-Cl) :   0.1490 B(  2-C ,  9-H ) :   0.0549 B(  2-C , 10-H ) :   0.8611 
B(  3-C ,  4-C ) :   1.2589 B(  3-C ,  5-C ) :   0.0919 B(  3-C ,  6-O ) :   0.2141 
B(  3-C ,  7-Cl) :   1.3683 B(  3-C , 10-H ) :   0.0542 B(  4-C ,  5-C ) :   1.3122 
B(  4-C ,  6-O ) :   1.5180 B(  4-C ,  7-Cl) :   0.1394 B(  4-C , 11-H ) :   0.0548 
B(  5-C ,  6-O ) :   0.2278 B(  5-C ,  8-H ) :   0.0552 B(  5-C , 11-H ) :   0.8544 
B(  6-O ,  7-Cl) :   0.0788 B(  6-O , 12-H ) :   0.9185 

------------------------------------------
LOEWDIN REDUCED ORBITAL POPULATIONS PER MO
-------------------------------------------
THRESHOLD FOR PRINTING IS 0.1%%
                      0         1         2         3         4         5   
                 -101.23309 -18.99452 -10.11297 -10.10133 -10.04794 -10.04084
                   2.00000   2.00000   2.00000   2.00000   2.00000   2.00000
                  --------  --------  --------  --------  --------  --------
 0 C  s               0.0       0.0       0.0       0.0       0.0      89.7
 1 C  s               0.0       0.0       0.0       0.0       0.1       0.2
 1 C  px              0.0       0.0       0.0       0.0       0.1       0.0
 1 C  py              0.0       0.0       0.0       0.0       0.0       0.1
 2 C  s               0.0       0.0       0.0       0.0      99.5       0.0
 3 C  s               0.0       0.0       0.1      99.5       0.0       0.0
 3 C  py              0.0       0.0       0.1       0.0       0.1       0.0
 4 C  s               0.0       0.0      99.2       0.1       0.0       0.0
 4 C  py              0.0       0.0       0.0       0.1       0.0       0.0
 5 C  s               0.0       0.0       0.0       0.0       0.0       9.7
 5 C  px              0.0       0.0       0.1       0.0       0.0       0.0
 6 O  s               0.0      99.9       0.0       0.0       0.0       0.0
 6 O  dxy             0.0       0.0       0.2       0.0       0.0       0.0
 7 Cl s             100.0       0.0       0.0       0.0       0.0       0.0

                      6         7         8         9        10        11   
                 -10.04003 -10.03612  -9.38864  -7.13465  -7.12483  -7.12480
                   2.00000   2.00000   2.00000   2.00000   2.00000   2.00000
                  --------  --------  --------  --------  --------  --------
 0 C  s               9.6       0.3       0.0       0.0       0.0       0.0
 0 C  py              0.1       0.1       0.0       0.0       0.0       0.0
 1 C  s               0.0      99.3       0.0       0.0       0.0       0.0
 2 C  px              0.0       0.1       0.0       0.0       0.0       0.0
 3 C  px              0.0       0.0       0.2       0.0       0.0       0.0
 4 C  px              0.1       0.0       0.0       0.0       0.0       0.0
 5 C  s              89.9       0.0       0.0       0.0       0.0       0.0
 7 Cl s               0.0       0.0      99.8       0.0       0.0       0.0
 7 Cl pz              0.0       0.0       0.0       0.0       0.0     100.0
 7 Cl px              0.0       0.0       0.0      98.8       1.2       0.0
 7 Cl py              0.0       0.0       0.0       1.2      98.8       0.0

                     12        13        14        15        16        17   
                  -1.04254  -0.86100  -0.81125  -0.72485  -0.70530  -0.59499
                   2.00000   2.00000   2.00000   2.00000   2.00000   2.00000
                  --------  --------  --------  --------  --------  --------
 0 C  s               0.1       3.1      11.9       0.4      17.3       4.8
 0 C  px              0.1       1.2       1.8       0.1       0.2       0.8
 0 C  py              0.0       0.0       0.0       8.8       0.2       0.1
 0 C  dz2             0.0       0.0       0.1       0.0       0.1       0.0
 0 C  dxy             0.0       0.0       0.0       0.3       0.0       0.0
 1 C  s               0.0       4.3       9.2      11.3       6.0       0.8
 1 C  px              0.0       1.1       0.1       2.8       4.2       3.8
 1 C  py              0.0       0.5       1.8       1.1       2.0       4.5
 1 C  dz2             0.0       0.0       0.1       0.1       0.0       0.0
 1 C  dx2y2           0.0       0.0       0.0       0.1       0.1       0.1
 2 C  s               0.1       9.5       3.2      16.5       2.7       5.0
 2 C  px              0.0       0.4       3.5       1.3       3.6       0.9
 2 C  py              0.1       2.7       0.2       0.3       1.3       4.4
 2 C  dz2             0.0       0.1       0.0       0.1       0.0       0.0
 2 C  dx2y2           0.0       0.0       0.0       0.1       0.1       0.1
 2 C  dxy             0.0       0.0       0.0       0.0       0.1       0.0
 3 C  s               1.2      22.2       0.1       0.2       9.6       5.4
 3 C  px              0.0       1.4      14.4       0.7       5.6       0.0
 3 C  py              1.7       0.3       0.0       8.0       0.3       4.9
 3 C  dz2             0.0       0.3       0.0       0.0       0.0       0.0
 3 C  dx2y2           0.0       0.1       0.2       0.0       0.3       0.0
 3 C  dxy             0.0       0.0       0.0       0.3       0.0       0.0
 4 C  s              10.8       4.3       2.7       7.6       5.7       0.1
 4 C  px              3.6       0.2       5.0       4.9       0.5       6.3
 4 C  py              5.8       6.4       0.1       0.2       3.5      13.4
 4 C  dz2             0.4       0.0       0.0       0.0       0.0       0.0
 4 C  dx2y2           0.1       0.0       0.0       0.1       0.1       0.0
 4 C  dxy             0.6       0.2       0.0       0.1       0.1       0.1
 5 C  s               0.9       3.1       9.9      15.0       1.7       2.4
 5 C  px              1.6       0.3       0.0       1.0       6.6       2.6
 5 C  py              0.1       1.1       1.9       0.3       1.3       5.8
 5 C  dz2             0.0       0.0       0.1       0.1       0.0       0.0
 5 C  dx2y2           0.0       0.0       0.0       0.1       0.1       0.1
 5 C  dxy             0.0       0.0       0.0       0.0       0.2       0.0
 6 O  s              57.9       2.3       0.2       1.8       1.1       0.1
 6 O  px              0.0       0.2       0.7       3.6       1.4      13.7
 6 O  py              2.9       0.4       0.1       1.1       1.2       0.1
 6 O  dz2             0.2       0.2       0.0       0.2       0.1       0.0
 6 O  dx2y2           0.0       0.2       0.0       0.0       0.4       0.5
 6 O  dxy             0.1       0.0       0.4       0.7       0.4       0.3
 7 Cl s               0.2      28.8      27.9       1.1      13.2       4.0
 7 Cl px              0.1       2.0       0.3       0.1       1.8       2.7
 7 Cl py              0.0       0.0       0.0       0.0       0.0       0.8
 7 Cl dz2             0.0       0.2       0.0       0.0       0.1       0.1
 7 Cl dx2y2           0.0       0.4       0.0       0.0       0.2       0.2
 7 Cl dxy             0.0       0.0       0.0       0.0       0.0       0.1
 8 H  s               0.0       0.2       1.2       0.1       3.3       1.9
 8 H  px              0.0       0.0       0.1       0.0       0.3       0.2
 9 H  s               0.0       0.4       0.9       1.8       1.1       0.4
 9 H  py              0.0       0.0       0.0       0.1       0.1       0.0
10 H  s               0.0       0.9       0.2       2.8       0.4       2.9
10 H  py              0.0       0.1       0.0       0.2       0.0       0.2
11 H  s               0.1       0.3       1.0       2.6       0.3       2.0
11 H  py              0.0       0.0       0.1       0.2       0.0       0.1
12 H  s               9.0       0.3       0.2       1.3       0.7       2.9
12 H  px              2.1       0.1       0.0       0.2       0.1       0.2

                     18        19        20        21        22        23   
                  -0.58756  -0.52381  -0.47795  -0.44989  -0.41961  -0.40670
                   2.00000   2.00000   2.00000   2.00000   2.00000   2.00000
                  --------  --------  --------  --------  --------  --------
 0 C  s               0.2       4.9       0.5       1.0       0.5       0.0
 0 C  pz              0.0       0.0       0.0       0.0       0.0       3.0
 0 C  px              0.0       8.9       2.7       0.0      14.3       0.0
 0 C  py             13.3       0.0       3.2       8.4       0.9       0.0
 0 C  dx2y2           0.0       0.0       0.0       0.1       0.2       0.0
 0 C  dxy             0.2       0.0       0.1       0.0       0.0       0.0
 1 C  s               8.7       0.7       1.1       1.8       1.0       0.0
 1 C  pz              0.0       0.0       0.0       0.0       0.0       2.6
 1 C  px              2.8       3.3       0.2      12.1       7.4       0.0
 1 C  py              0.4       0.6      17.0       0.4       1.7       0.0
 2 C  s               3.8       0.3       0.3       2.2       0.5       0.0
 2 C  pz              0.0       0.0       0.0       0.0       0.0       5.4
 2 C  px              8.3       8.5       0.8       2.3       8.3       0.0
 2 C  py              0.1       0.1      12.2       3.4       4.5       0.0
 2 C  dx2y2           0.1       0.0       0.0       0.0       0.4       0.0
 2 C  dxy             0.0       0.0       0.0       0.2       0.0       0.0
 3 C  s               0.3       1.5       0.1       1.9       0.2       0.0
 3 C  pz              0.0       0.0       0.0       0.0       0.0      17.8
 3 C  px              0.2       2.3       4.8       1.9       6.2       0.0
 3 C  py             12.1       4.4       5.5       3.5       0.1       0.0
 3 C  dx2y2           0.0       0.1       0.0       0.2       0.4       0.0
 3 C  dxy             0.1       0.1       0.0       0.0       0.1       0.0
 4 C  s               4.8       0.1       0.2       0.3       2.3       0.0
 4 C  pz              0.0       0.0       0.0       0.0       0.0      26.6
 4 C  px              2.7       4.7       1.8       8.3       3.0       0.0
 4 C  py              0.0       6.5       0.9       0.3       1.8       0.0
 4 C  dx2y2           0.1       0.3       0.2       0.1       0.0       0.0
 4 C  dxy             0.0       0.1       0.3       0.2       0.0       0.0
 5 C  s               6.2       1.1       2.7       0.5       0.4       0.0
 5 C  pz              0.0       0.0       0.0       0.0       0.0       7.6
 5 C  px              4.7       3.7       3.6       5.4       6.7       0.0
 5 C  py              0.2       0.3       5.5       6.1       0.3       0.0
 5 C  dxz             0.0       0.0       0.0       0.0       0.0       0.1
 5 C  dx2y2           0.0       0.0       0.0       0.0       0.4       0.0
 5 C  dxy             0.0       0.2       0.0       0.2       0.0       0.0
 6 O  s               1.4       0.1       1.5       0.8       0.1       0.0
 6 O  pz              0.0       0.0       0.0       0.0       0.0      27.1
 6 O  px              8.3      20.0       5.0       0.6       2.0       0.0
 6 O  py              5.7       2.6       2.6      12.1       0.5       0.0
 6 O  dz2             0.0       0.1       0.2       0.0       0.0       0.0
 6 O  dxz             0.0       0.0       0.0       0.0       0.0       0.2
 6 O  dyz             0.0       0.0       0.0       0.0       0.0       1.1
 6 O  dx2y2           0.8       0.2       0.0       0.6       0.1       0.0
 6 O  dxy             0.2       0.1       0.1       0.1       0.4       0.0
 7 Cl s               0.3       2.4       1.7       1.3       1.1       0.0
 7 Cl pz              0.0       0.0       0.0       0.0       0.0       7.5
 7 Cl px              0.3       6.2       5.5      11.3      14.7       0.0
 7 Cl py              0.4       0.6       2.1       0.5       1.0       0.0
 7 Cl dxz             0.0       0.0       0.0       0.0       0.0       0.4
 7 Cl dx2y2           0.0       0.4       0.0       0.4       0.2       0.0
 7 Cl dxy             0.1       0.0       0.2       0.1       0.1       0.0
 8 H  s               0.1       6.6       0.4       0.6       7.7       0.0
 8 H  px              0.0       0.4       0.0       0.0       0.2       0.0
 9 H  s               4.1       0.1       6.1       5.2       1.3       0.0
 9 H  px              0.1       0.0       0.2       0.0       0.0       0.0
 9 H  py              0.2       0.0       0.1       0.3       0.0       0.0
10 H  s               2.1       1.0       2.8       2.4       6.1       0.0
10 H  px              0.0       0.0       0.1       0.1       0.0       0.0
10 H  py              0.2       0.1       0.1       0.0       0.2       0.0
11 H  s               2.7       0.0       6.0       1.7       1.6       0.0
11 H  px              0.0       0.0       0.0       0.1       0.0       0.0
11 H  py              0.2       0.0       0.3       0.0       0.1       0.0
12 H  s               2.7       5.6       1.0       0.2       0.6       0.0
12 H  pz              0.0       0.0       0.0       0.0       0.0       0.4
12 H  px              0.3       0.2       0.0       0.0       0.0       0.0
12 H  py              0.2       0.1       0.0       0.2       0.0       0.0

                     24        25        26        27        28        29   
                  -0.40383  -0.37098  -0.34714  -0.33922  -0.32195  -0.31589
                   2.00000   2.00000   2.00000   2.00000   2.00000   2.00000
                  --------  --------  --------  --------  --------  --------
 0 C  s               0.6       0.0       0.3       0.0       0.1       0.0
 0 C  pz              0.0       0.0       0.0       0.9       0.0      21.7
 0 C  px              8.6       1.4       7.3       0.0       7.9       0.0
 0 C  py              0.1       8.3       6.3       0.0       4.0       0.0
 0 C  dxz             0.0       0.0       0.0       0.0       0.0       0.1
 0 C  dx2y2           0.0       0.1       0.4       0.0       0.7       0.0
 0 C  dxy             0.1       0.1       0.5       0.0       0.0       0.0
 1 C  s               0.1       0.1       0.3       0.0       0.0       0.0
 1 C  pz              0.0       0.0       0.0       3.9       0.0      20.0
 1 C  px              0.7       1.6       7.8       0.0       5.0       0.0
 1 C  py              0.6       7.7      10.4       0.0       5.2       0.0
 1 C  dyz             0.0       0.0       0.0       0.0       0.0       0.1
 1 C  dx2y2           0.3       0.0       0.3       0.0       0.3       0.0
 1 C  dxy             0.1       0.1       0.9       0.0       0.1       0.0
 2 C  s               0.1       0.1       0.7       0.0       0.2       0.0
 2 C  pz              0.0       0.0       0.0       9.0       0.0       7.0
 2 C  px              2.0       3.4       4.5       0.0       4.5       0.0
 2 C  py             17.0       0.1       2.0       0.0       4.8       0.0
 2 C  dxz             0.0       0.0       0.0       0.0       0.0       0.2
 2 C  dx2y2           0.0       0.0       0.0       0.0       0.3       0.0
 2 C  dxy             0.3       0.0       0.4       0.0       0.3       0.0
 3 C  s               1.0       0.6       0.3       0.0       0.3       0.0
 3 C  pz              0.0       0.0       0.0      11.2       0.0       0.3
 3 C  px              8.5       0.1       1.7       0.0       0.6       0.0
 3 C  py              0.2       3.0       2.5       0.0       5.1       0.0
 3 C  dxz             0.0       0.0       0.0       0.1       0.0       0.3
 3 C  dyz             0.0       0.0       0.0       0.1       0.0       0.0
 3 C  dx2y2           0.0       0.1       0.2       0.0       0.4       0.0
 3 C  dxy             0.2       0.1       0.0       0.0       0.0       0.0
 4 C  s               0.2       0.1       0.1       0.0       0.2       0.0
 4 C  pz              0.0       0.0       0.0       3.5       0.0       0.1
 4 C  px              2.2       0.1       1.8       0.0       5.0       0.0
 4 C  py              0.2       3.0       0.3       0.0       3.5       0.0
 4 C  dxz             0.0       0.0       0.0       0.0       0.0       0.2
 4 C  dyz             0.0       0.0       0.0       0.6       0.0       0.1
 4 C  dx2y2           0.5       0.6       0.0       0.0       0.5       0.0
 4 C  dxy             0.1       0.1       0.5       0.0       0.3       0.0
 5 C  s               0.3       0.3       0.4       0.0       0.1       0.0
 5 C  pz              0.0       0.0       0.0       0.2       0.0      10.1
 5 C  px              4.9       0.5       4.6       0.0       5.7       0.0
 5 C  py             17.0       5.3       6.1       0.0       3.2       0.0
 5 C  dyz             0.0       0.0       0.0       0.0       0.0       0.1
 5 C  dx2y2           0.0       0.1       0.0       0.0       0.7       0.0
 5 C  dxy             0.1       0.0       0.1       0.0       0.2       0.0
 6 O  s               0.0       5.7       0.1       0.0       1.0       0.0
 6 O  pz              0.0       0.0       0.0      34.8       0.0       6.6
 6 O  px              0.2       9.4       0.1       0.0       2.8       0.0
 6 O  py              0.0      36.7       4.2       0.0       8.8       0.0
 6 O  dz2             0.0       0.2       0.1       0.0       0.0       0.0
 6 O  dxz             0.0       0.0       0.0       0.1       0.0       0.1
 6 O  dx2y2           0.0       0.8       0.1       0.0       0.7       0.0
 6 O  dxy             0.1       0.0       0.0       0.0       0.2       0.0
 7 Cl s               0.9       0.0       0.1       0.0       0.0       0.0
 7 Cl pz              0.0       0.0       0.0      34.4       0.0      32.4
 7 Cl px             10.7       0.5       2.9       0.0       5.3       0.0
 7 Cl py              0.0       0.1       9.7       0.0       1.3       0.0
 7 Cl dxz             0.0       0.0       0.0       0.3       0.0       0.0
 7 Cl dx2y2           0.0       0.1       0.0       0.0       0.0       0.0
 7 Cl dxy             0.0       0.0       0.1       0.0       0.1       0.0
 8 H  s               2.5       1.5       5.7       0.0       6.7       0.0
 8 H  pz              0.0       0.0       0.0       0.0       0.0       0.2
 9 H  s               0.2       1.1      14.1       0.0       0.2       0.0
 9 H  pz              0.0       0.0       0.0       0.0       0.0       0.1
 9 H  py              0.0       0.0       0.1       0.0       0.0       0.0
10 H  s               8.7       0.3       0.9       0.0       6.7       0.0
10 H  py              0.2       0.0       0.0       0.0       0.1       0.0
11 H  s              10.0       2.7       0.6       0.0       5.7       0.0
11 H  px              0.0       0.1       0.1       0.0       0.0       0.0
11 H  py              0.2       0.0       0.0       0.0       0.1       0.0
12 H  s               0.1       2.8       0.1       0.0       1.1       0.0
12 H  pz              0.0       0.0       0.0       0.5       0.0       0.1
12 H  py              0.0       0.4       0.0       0.0       0.1       0.0

                     30        31        32        33        34        35   
                  -0.30138  -0.23997  -0.21529  -0.04379  -0.02731  -0.00230
                   2.00000   2.00000   2.00000   0.00000   0.00000   0.00000
                  --------  --------  --------  --------  --------  --------
 0 C  s               0.0       0.0       0.0       0.0       0.0       0.4
 0 C  pz              0.0      16.9       5.8      19.7      11.4       0.0
 0 C  px              0.1       0.0       0.0       0.0       0.0       0.0
 0 C  py              0.7       0.0       0.0       0.0       0.0       0.0
 0 C  dxz             0.0       0.0       0.0       0.2       0.0       0.0
 0 C  dyz             0.0       0.2       0.4       0.4       0.9       0.0
 1 C  s               0.1       0.0       0.0       0.0       0.0       0.6
 1 C  pz              0.0       1.5      22.3       0.6      29.4       0.0
 1 C  px              1.3       0.0       0.0       0.0       0.0       0.6
 1 C  py              1.1       0.0       0.0       0.0       0.0       0.2
 1 C  dxz             0.0       0.4       0.0       1.0       0.0       0.0
 1 C  dyz             0.0       0.2       0.0       0.4       0.2       0.0
 1 C  dxy             0.1       0.0       0.0       0.0       0.0       0.3
 2 C  s               0.3       0.0       0.0       0.0       0.0       0.0
 2 C  pz              0.0      26.6       1.1      25.9       5.8       0.0
 2 C  px              2.7       0.0       0.0       0.0       0.0       0.1
 2 C  py              1.2       0.0       0.0       0.0       0.0       1.3
 2 C  dxz             0.0       0.0       0.5       0.1       1.1       0.0
 2 C  dyz             0.0       0.1       0.1       0.4       0.1       0.0
 2 C  dx2y2           0.0       0.0       0.0       0.0       0.0       1.2
 2 C  dxy             0.1       0.0       0.0       0.0       0.0       0.5
 3 C  s               0.0       0.0       0.0       0.0       0.0       7.1
 3 C  pz              0.0      10.8      14.2      18.0       6.3       0.0
 3 C  px              0.2       0.0       0.0       0.0       0.0      22.6
 3 C  py              3.2       0.0       0.0       0.0       0.0       0.5
 3 C  dz2             0.0       0.0       0.0       0.0       0.0       0.7
 3 C  dxz             0.0       0.2       0.1       0.1       0.0       0.0
 3 C  dyz             0.0       0.2       0.2       0.5       1.1       0.0
 3 C  dx2y2           0.0       0.0       0.0       0.0       0.0       1.0
 3 C  dxy             0.7       0.0       0.0       0.0       0.0       0.1
 4 C  s               0.4       0.0       0.0       0.0       0.0       0.3
 4 C  pz              0.0       0.3      15.4       0.2      26.1       0.0
 4 C  px              1.0       0.0       0.0       0.0       0.0       0.8
 4 C  py              1.4       0.0       0.0       0.0       0.0       1.9
 4 C  dxz             0.0       0.5       0.2       0.9       0.0       0.0
 4 C  dyz             0.0       0.1       0.7       0.5       0.0       0.0
 4 C  dx2y2           0.0       0.0       0.0       0.0       0.0       0.7
 4 C  dxy             0.1       0.0       0.0       0.0       0.0       1.3
 5 C  s               0.1       0.0       0.0       0.0       0.0       0.4
 5 C  pz              0.0      25.3       7.6      23.6       3.5       0.0
 5 C  px              0.1       0.0       0.0       0.0       0.0       0.8
 5 C  py              1.3       0.0       0.0       0.0       0.0       0.1
 5 C  dxz             0.0       0.0       0.3       0.1       1.3       0.0
 5 C  dyz             0.0       0.1       0.0       0.3       0.1       0.0
 5 C  dxy             0.1       0.0       0.0       0.0       0.0       0.5
 6 O  s               0.0       0.0       0.0       0.0       0.0       0.6
 6 O  pz              0.0       1.4      20.2       0.0       5.5       0.0
 6 O  px              0.9       0.0       0.0       0.0       0.0       0.4
 6 O  py              0.0       0.0       0.0       0.0       0.0       0.8
 6 O  dxz             0.0       0.1       0.8       0.7       1.1       0.0
 6 O  dyz             0.0       0.0       1.1       0.4       2.4       0.0
 6 O  dx2y2           0.1       0.0       0.0       0.0       0.0       0.0
 6 O  dxy             0.4       0.0       0.0       0.0       0.0       0.2
 7 Cl s               0.0       0.0       0.0       0.0       0.0       5.3
 7 Cl pz              0.0      13.9       7.5       1.7       0.7       0.0
 7 Cl px              1.2       0.0       0.0       0.0       0.0      26.8
 7 Cl py             77.9       0.0       0.0       0.0       0.0       0.4
 7 Cl dz2             0.0       0.0       0.0       0.0       0.0       3.5
 7 Cl dxz             0.0       0.5       0.6       2.1       1.1       0.0
 7 Cl dyz             0.0       0.0       0.0       0.3       0.1       0.0
 7 Cl dx2y2           0.0       0.0       0.0       0.0       0.0      13.0
 7 Cl dxy             0.1       0.0       0.0       0.0       0.0       0.5
 8 H  pz              0.0       0.2       0.1       0.5       0.3       0.0
 9 H  s               1.6       0.0       0.0       0.0       0.0       0.6
 9 H  pz              0.0       0.0       0.3       0.0       0.9       0.0
 9 H  px              0.0       0.0       0.0       0.0       0.0       0.1
10 H  s               0.1       0.0       0.0       0.0       0.0       1.9
10 H  pz              0.0       0.3       0.0       0.8       0.2       0.0
10 H  py              0.0       0.0       0.0       0.0       0.0       0.1
11 H  s               0.9       0.0       0.0       0.0       0.0       1.1
11 H  pz              0.0       0.3       0.1       0.7       0.1       0.0
11 H  px              0.0       0.0       0.0       0.0       0.0       0.1
12 H  s               0.3       0.0       0.0       0.0       0.0       0.1
12 H  pz              0.0       0.0       0.4       0.0       0.2       0.0

                     36        37        38        39        40        41   
                   0.07278   0.11143   0.11748   0.13094   0.13936   0.15124
                   0.00000   0.00000   0.00000   0.00000   0.00000   0.00000
                  --------  --------  --------  --------  --------  --------
 0 C  s               0.8      13.6       0.0       3.0       1.1       1.0
 0 C  pz              0.0       0.0      15.1       0.0       0.0       0.0
 0 C  px              0.9       5.9       0.0       3.4       6.4       1.7
 0 C  py              0.4       0.1       0.0       2.9       0.1       5.6
 0 C  dz2             0.1       0.0       0.0       0.0       0.3       0.1
 0 C  dxz             0.0       0.0       0.5       0.0       0.0       0.0
 0 C  dx2y2           0.0       1.5       0.0       0.0       0.9       0.0
 0 C  dxy             0.0       0.0       0.0       0.0       0.1       0.4
 1 C  s               1.1      13.7       0.0       1.7       1.8       7.7
 1 C  pz              0.0       0.0      14.3       0.0       0.0       0.0
 1 C  px              0.2       2.1       0.0       0.3       2.5      14.8
 1 C  py              0.2       3.1       0.0       7.2       2.6       4.6
 1 C  dz2             0.1       0.1       0.0       0.0       0.5       0.4
 1 C  dxz             0.0       0.0       0.1       0.0       0.0       0.0
 1 C  dyz             0.0       0.0       0.3       0.0       0.0       0.0
 1 C  dx2y2           0.0       0.3       0.0       0.0       0.3       0.3
 1 C  dxy             0.0       0.7       0.0       0.1       0.5       0.0
 2 C  s               2.4      11.3       0.0       5.8       4.9       8.1
 2 C  pz              0.0       0.0      12.8       0.0       0.0       0.0
 2 C  px              1.5       0.2       0.0       3.2       0.0       5.4
 2 C  py              0.4       1.5       0.0      17.0       1.9       4.6
 2 C  dz2             0.1       0.0       0.0       0.0       0.9       0.5
 2 C  dyz             0.0       0.0       0.4       0.0       0.0       0.0
 2 C  dx2y2           0.0       0.1       0.0       0.4       0.0       0.2
 2 C  dxy             0.0       0.2       0.0       0.1       0.1       0.1
 3 C  s               8.1       3.5       0.0       1.5       9.1       1.4
 3 C  pz              0.0       0.0      11.7       0.0       0.0       0.0
 3 C  px              2.7       2.1       0.0       0.6       0.3       2.0
 3 C  py              0.6       0.1       0.0       1.4       0.0       1.5
 3 C  dz2             0.1       0.4       0.0       0.2       0.4       0.2
 3 C  dxz             0.0       0.0       0.5       0.0       0.0       0.0
 3 C  dx2y2           0.2       0.2       0.0       0.3       0.0       0.1
 3 C  dxy             0.1       0.0       0.0       0.3       0.0       0.9
 4 C  s               8.7       3.2       0.0       3.0       3.3       0.1
 4 C  pz              0.0       0.0      16.3       0.0       0.0       0.0
 4 C  px              4.2       1.2       0.0       0.3       0.3       2.0
 4 C  py              3.8       1.8       0.0       1.7       1.2       2.5
 4 C  dz2             1.2       0.0       0.0       0.5       0.6       0.0
 4 C  dx2y2           0.0       0.0       0.0       0.0       0.1       0.3
 4 C  dxy             0.6       0.3       0.0       0.4       0.0       0.6
 5 C  s               4.0       7.0       0.0       9.0       1.7       2.2
 5 C  pz              0.0       0.0      15.5       0.0       0.0       0.0
 5 C  px              2.2       2.0       0.0       3.2       1.5       5.3
 5 C  py              0.2       1.1       0.0      13.8       4.0       1.8
 5 C  dz2             0.0       0.1       0.0       0.0       0.8       0.4
 5 C  dxz             0.0       0.0       0.2       0.0       0.0       0.0
 5 C  dyz             0.0       0.0       0.5       0.0       0.0       0.0
 5 C  dx2y2           0.0       0.6       0.0       0.0       0.4       0.2
 5 C  dxy             0.4       0.3       0.0       0.4       0.0       0.3
 6 O  s               9.4       0.5       0.0       0.1       0.8       0.9
 6 O  pz              0.0       0.0       1.3       0.0       0.0       0.0
 6 O  px              3.5       0.2       0.0       0.1       4.3       0.3
 6 O  py              2.6       0.5       0.0       0.1       0.1       0.6
 6 O  dz2             0.4       0.5       0.0       1.1       4.4       0.0
 6 O  dxz             0.0       0.0       0.3       0.0       0.0       0.0
 6 O  dyz             0.0       0.0       1.7       0.0       0.0       0.0
 6 O  dx2y2           1.5       0.0       0.0       0.5       3.1       0.2
 6 O  dxy             0.4       0.6       0.0       0.0       0.9       0.0
 7 Cl s               1.9       0.4       0.0       0.4       0.2       1.7
 7 Cl pz              0.0       0.0       0.5       0.0       0.0       0.0
 7 Cl px              0.4       0.8       0.0       0.3       0.5       1.4
 7 Cl py              1.6       0.5       0.0       0.8       1.1       1.1
 7 Cl dz2             0.3       0.0       0.0       0.0       6.1       0.0
 7 Cl dxz             0.0       0.0       4.0       0.0       0.0       0.0
 7 Cl dyz             0.0       0.0       0.2       0.0       0.0       0.0
 7 Cl dx2y2           6.4       0.9       0.0       0.0       0.1       0.1
 7 Cl dxy             0.0       0.0       0.0       1.1       0.0       3.4
 8 H  s               0.2       3.8       0.0       0.4       4.0       0.2
[...]
 6 O  dx2y2           2.7      15.7       0.8       1.4       5.4       0.2
 6 O  dxy             2.2      10.2       0.6       1.2       2.7       3.4
 7 Cl s               0.1       0.0       0.0       0.1       0.0       0.0
 7 Cl px              0.6       0.0       0.0       0.2       0.0       0.0
 7 Cl py              0.0       0.1       0.0       0.0       0.0       0.0
 7 Cl dx2y2           0.0       0.2       0.0       0.1       0.0       0.0
 7 Cl dxy             0.1       0.1       0.1       0.0       0.0       0.0
 8 H  s               1.0       0.3       1.4       1.5       0.0       3.0
 8 H  px              3.5       1.0       7.2       4.3       0.0       6.2
 8 H  py              0.0       0.0       0.1       0.3       0.2       0.0
 9 H  s               0.9       0.8       1.2       1.2       0.0       3.3
 9 H  px              1.3       0.9       2.3       0.5       0.2       2.5
 9 H  py              1.7       2.7       3.6       3.5       0.0       4.6
10 H  s               2.8       0.2       0.5       5.0       0.0       1.9
10 H  px              2.9       0.6       0.2       2.8       0.2       0.5
10 H  py             10.7       0.4       0.6      13.0       0.0       3.6
11 H  s               2.0       1.7       0.1       4.6       0.1       1.1
11 H  px              0.6       2.4       0.1       1.9       0.4       0.5
11 H  py              9.9       4.7       0.2      12.9       0.1       2.0
12 H  px              0.0       0.0       0.1       0.0       0.2       0.1
12 H  py              0.8       5.4       0.2       0.3       1.6       0.0

                    180       181       182       183       184       185   
                   4.17347   4.57931  21.35220  21.86124  21.96300  22.14851
                   0.00000   0.00000   0.00000   0.00000   0.00000   0.00000
                  --------  --------  --------  --------  --------  --------
 0 C  s               0.1       0.0      13.9      27.8       0.1      34.7
 0 C  px              0.6       0.0       0.0       0.0       0.0       0.0
 0 C  dz2             0.1       0.0       0.0       0.0       0.0       0.0
 0 C  dx2y2           3.3       0.2       0.0       0.0       0.0       0.0
 1 C  s               0.1       0.0      14.3      14.3      19.7       7.7
 1 C  px              0.1       0.0       0.0       0.0       0.0       0.0
 1 C  py              0.4       0.0       0.0       0.0       0.0       0.0
 1 C  dx2y2           0.2       0.0       0.0       0.0       0.0       0.0
 1 C  dxy             2.2       0.1       0.0       0.0       0.0       0.0
 2 C  s               0.1       0.0      17.6       1.3      24.3      12.6
 2 C  py              0.4       0.0       0.0       0.0       0.0       0.0
 2 C  dx2y2           0.7       0.1       0.0       0.0       0.0       0.0
 2 C  dxy             1.3       0.1       0.0       0.0       0.0       0.0
 3 C  s               0.3       0.1      27.1      42.6       0.2      21.6
 3 C  px              0.2       0.0       0.0       0.0       0.0       0.0
 3 C  py              0.1       0.0       0.0       0.0       0.2       0.0
 3 C  dx2y2           0.7       0.3       0.0       0.0       0.0       0.0
 3 C  dxy             0.1       0.0       0.0       0.0       0.0       0.0
 4 C  s               2.1       0.3      13.2       3.5      27.1      22.1
 4 C  px              1.9       0.6       0.0       0.0       0.1       0.0
 4 C  py              2.8       1.3       0.0       0.1       0.0       0.0
 4 C  dz2             1.6       0.1       0.0       0.0       0.0       0.0
 4 C  dx2y2           1.3       0.5       0.0       0.0       0.0       0.0
 4 C  dxy             6.8       2.2       0.0       0.0       0.0       0.0
 5 C  s               0.1       0.2      13.7       9.8      27.9       1.0
 5 C  px              0.1       0.0       0.0       0.0       0.0       0.0
 5 C  py              0.9       0.1       0.0       0.0       0.0       0.0
 5 C  dz2             0.2       0.0       0.0       0.0       0.0       0.0
 5 C  dx2y2           1.8       0.2       0.0       0.0       0.0       0.0
 5 C  dxy             1.6       0.1       0.0       0.0       0.0       0.0
 6 O  s              21.7       4.2       0.1       0.0       0.1       0.0
 6 O  px              0.4      22.6       0.0       0.0       0.0       0.0
 6 O  py             13.7       0.2       0.0       0.0       0.0       0.0
 6 O  dz2            13.8       3.6       0.0       0.0       0.0       0.0
 6 O  dx2y2           0.1      21.2       0.0       0.0       0.0       0.0
 6 O  dxy             5.4      13.5       0.0       0.0       0.0       0.0
 7 Cl px              0.1       0.1       0.0       0.0       0.0       0.0
 8 H  s               0.8       0.0       0.0       0.0       0.0       0.0
 8 H  px              1.4       0.0       0.0       0.0       0.0       0.0
 9 H  s               0.7       0.0       0.0       0.0       0.0       0.0
 9 H  px              0.4       0.0       0.0       0.0       0.0       0.0
 9 H  py              0.7       0.0       0.0       0.0       0.0       0.0
10 H  s               0.5       0.0       0.0       0.0       0.0       0.0
10 H  px              0.2       0.0       0.0       0.0       0.0       0.0
10 H  py              0.7       0.0       0.0       0.0       0.0       0.0
11 H  s               1.2       0.1       0.0       0.0       0.0       0.0
11 H  px              0.3       0.0       0.0       0.0       0.0       0.0
11 H  py              1.6       0.1       0.0       0.0       0.0       0.0
12 H  s               1.4      12.6       0.0       0.0       0.0       0.0
12 H  px              2.2      14.1       0.0       0.0       0.0       0.0
12 H  py              0.0       0.9       0.0       0.0       0.0       0.0

                    186       187       188       189   
                  22.17259  22.31870  25.34795  43.62714
                   0.00000   0.00000   0.00000   0.00000
                  --------  --------  --------  --------
 0 C  s               1.0      22.0       0.0       0.0
 1 C  s              23.3      20.3       0.0       0.0
 2 C  s              28.8      15.1       0.0       0.0
 3 C  s               0.6       7.5       0.0       0.0
 3 C  px              0.0       0.0       0.4       0.0
 4 C  s              18.7      14.9       0.1       0.0
 5 C  s              27.2      19.9       0.0       0.0
 6 O  s               0.0       0.0       0.0      99.9
 7 Cl s               0.0       0.0      99.2       0.0
 7 Cl px              0.0       0.0       0.1       0.0


                      *****************************
                      * MAYER POPULATION ANALYSIS *
                      *****************************

  NA   - Mulliken gross atomic population
  ZA   - Total nuclear charge
  QA   - Mulliken gross atomic charge
  VA   - Mayer's total valence
  BVA  - Mayer's bonded valence
  FA   - Mayer's free valence

  ATOM       NA         ZA         QA         VA         BVA        FA
  0 C      6.1542     6.0000    -0.1542     3.7509     3.7509     0.0000
  1 C      6.2077     6.0000    -0.2077     3.7776     3.7776     0.0000
  2 C      6.1820     6.0000    -0.1820     3.7237     3.7237    -0.0000
  3 C      6.0014     6.0000    -0.0014     3.5894     3.5894    -0.0000
  4 C      5.6535     6.0000     0.3465     3.6865     3.6865     0.0000
  5 C      6.3054     6.0000    -0.3054     3.7818     3.7818     0.0000
  6 O      8.4453     8.0000    -0.4453     2.0000     2.0000     0.0000
  7 Cl    17.1767    17.0000    -0.1767     1.1144     1.1144    -0.0000
  8 H      0.8131     1.0000     0.1869     0.9552     0.9552     0.0000
  9 H      0.8130     1.0000     0.1870     0.9560     0.9560     0.0000
 10 H      0.8044     1.0000     0.1956     0.9532     0.9532    -0.0000
 11 H      0.8069     1.0000     0.1931     0.9552     0.9552     0.0000
 12 H      0.6365     1.0000     0.3635     0.8790     0.8790    -0.0000

  Mayer bond orders larger than 0.100000
B(  0-C ,  1-C ) :   1.3743 B(  0-C ,  5-C ) :   1.3823 B(  0-C ,  8-H ) :   0.9501 
B(  1-C ,  2-C ) :   1.3899 B(  1-C ,  9-H ) :   0.9529 B(  2-C ,  3-C ) :   1.2894 
B(  2-C , 10-H ) :   0.9409 B(  3-C ,  4-C ) :   1.3111 B(  3-C ,  7-Cl) :   0.9557 
B(  4-C ,  5-C ) :   1.3345 B(  4-C ,  6-O ) :   0.9994 B(  5-C , 11-H ) :   0.9533 
B(  6-O , 12-H ) :   0.8347 

-------
TIMINGS
-------

Total SCF time: 0 days 0 hours 0 min 25 sec 

Total time                  ....      25.509 sec
Sum of individual times     ....      24.078 sec  ( 94.4%)

SCF preparation             ....       0.276 sec  (  1.1%)
Fock matrix formation       ....      22.801 sec  ( 89.4%)
  Startup                   ....       0.058 sec  (  0.3% of F)
  Split-RI-J                ....       3.315 sec  ( 14.5% of F)
  XC integration            ....      15.403 sec  ( 67.6% of F)
    XC Preparation          ....       0.000 sec  (  0.0% of XC)
    Basis function eval.    ....       2.153 sec  ( 14.0% of XC)
    Density eval.           ....       3.965 sec  ( 25.7% of XC)
    XC-Functional eval.     ....       1.607 sec  ( 10.4% of XC)
    XC-Potential eval.      ....       4.776 sec  ( 31.0% of XC)
  CPCM terms                ....       3.475 sec  ( 15.2% of F)
Diagonalization             ....       0.000 sec  (  0.0%)
Density matrix formation    ....       0.245 sec  (  1.0%)
Total Energy calculation    ....       0.045 sec  (  0.2%)
Population analysis         ....       0.089 sec  (  0.3%)
Orbital Transformation      ....       0.050 sec  (  0.2%)
Orbital Orthonormalization  ....       0.000 sec  (  0.0%)
DIIS solution               ....       0.527 sec  (  2.1%)
  MO trafo                  ....       0.000 sec  (  0.0 % of DIIS)
  Orb grad                  ....       0.000 sec  (  0.0 % of DIIS)
  Energy W gradient         ....       0.000 sec  (  0.0 % of DIIS)
  DIIS error                ....       0.009 sec  (  1.8 % of DIIS)
  DIIS work                 ....       0.470 sec  ( 89.1 % of DIIS)
  Form Q                    ....       0.000 sec  (  0.0 % of DIIS)
  Form QpQm                 ....       0.000 sec  (  0.0 % of DIIS)
  Exp/Cayley                ....       0.000 sec  (  0.0 % of DIIS)
  Orb update                ....       0.000 sec  (  0.0 % of DIIS)
  Wake-sleep                ....       0.023 sec  (  4.3 % of DIIS)
SOSCF solution              ....       0.045 sec  (  0.2%)
  MO trafo                  ....       0.034 sec  ( 77.1 % of SOSCF)
  Orb grad                  ....       0.001 sec  (  1.3 % of SOSCF)
  Rot update                ....       0.000 sec  (  0.1 % of SOSCF)
  Step                      ....       0.009 sec  ( 21.3 % of SOSCF)
Finished LeanSCF after  25.6 sec

Maximum memory used throughout the entire LEANSCF-calculation: 20.5 MB


-------------------------------------------------------------------------------
                          DFT DISPERSION CORRECTION                            
                                                                               
                                DFTD4 V3.4.0                                   
-------------------------------------------------------------------------------
The R2SCAN3C composite method is recognized
Using three-body term ABC
Active option DFTDOPT                   ...         5   

-------------------------   ----------------
Dispersion correction           -0.004543823
-------------------------   ----------------

------------------   -----------------
gCP correction             0.005816395
------------------   -----------------

-------------------------   --------------------
FINAL SINGLE POINT ENERGY      -766.988272878440
-------------------------   --------------------


------------------------------------------------------------------------------
                              ORCA PROPERTY CALCULATIONS
------------------------------------------------------------------------------

GBWName                                 ... sp_solv.gbw
Number of atoms                         ...     13
Number of basis functions               ...    190
Max core memory                         ...   1024 MB

Electric properties:
Dipole moment                           ... YES
Quadrupole moment                       ...  NO
Static polarizability (Dipole/Dipole)   ...  NO
Static polarizability (Dipole/Quad.)    ...  NO
Static polarizability (Quad./Quad.)     ...  NO
Static polarizability (Velocity)        ...  NO

Atomic electric properties:
Dipole moment                           ...  NO
Quadrupole moment                       ...  NO
Static polarizability                   ...  NO

Choice of electric origin               ... Center of mass
Position of electric origin             ...    -0.000031    -0.000018    -0.000000

General magnetic properties:
Magnetizability                         ...  NO

EPR properties:
g-Tensor (aka g-matrix)                 ...  NO
Zero-Field splitting spin-orbit         ...  NO
Zero-field splitting spin-spin          ...  NO
Hyperfine couplings                     ...  NO (   0 nuclei)
Quadrupole couplings                    ...  NO (   0 nuclei)
Contact density                         ...  NO (   0 nuclei)

NMR properties:
Chemical shifts                         ...  NO (   0 nuclei)
Spin-rotation constants                 ...  NO (   0 nuclei)
Spin-spin couplings                     ...  NO (   0 nuclei,    0 pairs)

Choice of magnetic origin               ... GIAO
Position of magnetic origin             ...     0.000000     0.000000     0.000000

Properties with geometric perturbations:
SCF Hessian                             ...  NO
IR spectrum                             ...  NO
VCD spectrum                            ...  NO
X-ray spectroscopy properties:
SCF XES/XAS/RIXS spectra                ...  NO


-------------
DIPOLE MOMENT
-------------

Method             : SCF
Type of density    : Electron Density
Multiplicity       :   1
Irrep              :   0
Energy             :  -766.9895454501976246 Eh
Relativity type    : 
Basis              : AO
                                X                 Y                 Z
Electronic contribution:      8.614884716      -0.317169620       0.000676628
Nuclear contribution   :     -8.911850906      -0.006355833      -0.001269103
                        -----------------------------------------
Total Dipole Moment    :     -0.296966190      -0.323525453      -0.000592474
                        -----------------------------------------
Magnitude (a.u.)       :      0.439155995
Magnitude (Debye)      :      1.116245829



--------------------
Rotational spectrum 
--------------------
 
Rotational constants in cm-1:             0.099869             0.051379             0.033926 
Rotational constants in MHz :          2994.010855          1540.305242          1017.064212 

Dipole components along the rotational axes: 
x,y,z [a.u.] :     0.296966    -0.323525    -0.000592 
x,y,z [Debye]:     0.754829    -0.822336    -0.001506 

 

Dipole moment calculation done in   0.0 sec 

Maximum memory used throughout the entire PROP-calculation: 11.6 MB

--------------------------------
SUGGESTED CITATIONS FOR THIS RUN
--------------------------------

Below you find a list of papers that are relevant to this ORCA run
We neither can nor want to force you to cite these papers, but we appreciate if you do
You receive ORCA, which is the product of decades of hard work by many enthusiastic individuals, for free
The only thing we kindly ask in return is that you cite our papers,
We deeply appreciate it, if you show your appreciation for ORCA by not just citing the generic ORCA reference.

Please note that relegating all ORCA citations to the supporting information does *not* help us.
SI sections are not indexed - citations you put there will not count into any citation statistics
But we need these citations in order to attract the funding resources that allow us to do what we are doing

Therefore, if you are a happy ORCA user, please consider citing a few of the papers listed below in the main body of your paper

In addition to the list printed below, the program has created the file sp_solv.bibtex that contains the list in bibtex format
You can import this file easily into all common literature databanks and citation aid programs


List of essential papers. We consider these as the minimum necessary citations

  1. Neese,F.
     Software update: the ORCA program system, version 5.0
     WIRES Comput. Molec. Sci., 2022 12(1)e1606
     doi.org/10.1002/wcms.1606
  2. Grimme,S.; Hansen,A.; Ehlert,S.; Mewes,J.
     r2SCAN-3c: A 'Swiss army knife' composite electronic-structure method
     J. Chem. Phys., 2021 154 064103
     doi.org/10.1063/5.0040021

List of papers to cite with high priority. The work reported in these papers was absolutely
necessary for this run to complete.
Our perspective: the developers of density functionals and basis sets usually get cited in chemistry papers
Good! But without the algorithms to do something with them, the functionals or basis sets would not do anything.
Hence, in our opinion, the algorithm design and method developments papers are equally worthy of getting cited

  1. Neese,F.
     An improvement of the resolution of the identity approximation for the formation of the Coulomb matrix
     J. Comp. Chem., 2003 24(14)1740-1747
     doi.org/10.1002/jcc.10318
  2. Garcia-Rates,M.; Neese,F.
     Effect of the Solute Cavity on the Solvation Energy and its Derivatives within the Framework of the Gaussian Charge Scheme
     J. Comput. Chem., 2020 41 922-939
     doi.org/10.1002/jcc.26139
  3. Neese,F.
     The SHARK Integral Generation and Digestion System
     J. Comp. Chem., 2022  1-16
     doi.org/10.1002/jcc.26942
  4. Lehtola,S.; Steigemann,C.; Oliveira,M.; Marques,M.
     Recent developments in Libxc - A comprehensive library of functionals for density functional theory
     Software X, 2018 7 
     doi.org/10.1016/j.softx.2017.11.002
  5. Caldeweyher,E.; Bannwarth,C.; Grimme,S.
     Extension of the D3 dispersion coefficient model
     J. Chem. Phys., 2017 147 034112-XXXX
     doi.org/10.1063/1.4993215
  6. Caldeweyher,E.; Ehlert,S.; Hansen,A.; Neugebauer,H.; Spicher,S.; Bannwarth,C.; Grimme,S.
     A generally applicable atomic-charge dependent London dispersion correction
     J. Chem. Phys., 2019 150 154122-XXXX
     doi.org/10.1063/1.5090222
  7. Caldeweyher,E.; Mewes,J.; Ehlert,S.; Grimme,S.
     Extension and evaluation of the D4 London-dispersion model for periodic systems
     Phys. Chem. Chem. Phys., 2020 22(16)8499-8512
     doi.org/10.1039/D0CP00502A

List of suggested additional citations. These are papers that are important in the 'surrounding' of 
of this run, or papers that preceded the highly important papers. If you like your results we are grateful for a citation.

  1. Neese,F.
     The ORCA program system
     WIRES Comput. Molec. Sci., 2012 2(1)73-78
     doi.org/10.1002/wcms.81
  2. Neese,F.
     Software update: the ORCA program system, version 4.0
     WIRES Comput. Molec. Sci., 2018 8(1)1-6
     doi.org/10.1002/wcms.1327
  3. Neese,F.; Wennmohs,F.; Becker,U.; Riplinger,C.
     The ORCA quantum chemistry program package
     J. Chem. Phys., 2020 152 Art. No. L224108
     doi.org/10.1063/5.0004608

List of optional additional citations

  1. Neese,F.
     Approximate second-order SCF convergence for spin unrestricted wavefunctions
     Chem. Phys. Lett., 2000 325(1-3)93-98
     doi.org/10.1016/s0009-2614(00)00662-x

Timings for individual modules:

Sum of individual times          ...       27.268 sec (=   0.454 min)
Startup calculation              ...        1.186 sec (=   0.020 min)   4.3 %
SCF iterations                   ...       25.971 sec (=   0.433 min)  95.2 %
Property calculations            ...        0.110 sec (=   0.002 min)   0.4 %
                             ****ORCA TERMINATED NORMALLY****
TOTAL RUN TIME: 0 days 0 hours 0 minutes 28 seconds 135 msec
