      -----------------------------------------------------------      
     |                   =====================                   |     
     |                           x T B                           |     
     |                   =====================                   |     
     |                         S. Grimme                         |     
     |          Mulliken Center for Theoretical Chemistry        |     
     |                    University of Bonn                     |     
      -----------------------------------------------------------      

   * xtb version 6.7.1 (edcfbbe) compiled by 'albert@albert-system' on 2024-07-22

   xtb is free software: you can redistribute it and/or modify it under
   the terms of the GNU Lesser General Public License as published by
   the Free Software Foundation, either version 3 of the License, or
   (at your option) any later version.
   
   xtb is distributed in the hope that it will be useful,
   but WITHOUT ANY WARRANTY; without even the implied warranty of
   MERCHANTABILITY or FITNESS FOR A PARTICULAR PURPOSE.  See the
   GNU Lesser General Public License for more details.
   
   Cite this work as:
   * C. Bannwarth, E. Caldeweyher, S. Ehlert, A. Hansen, P. Pracht,
     J. Seibert, S. Spicher, S. Grimme, WIREs Comput. Mol. Sci., 2020, 11,
     e01493. DOI: 10.1002/wcms.1493
   
   for GFN2-xTB:
   * C. Bannwarth, S. Ehlert and S. Grimme., J. Chem. Theory Comput., 2019,
     15, 1652-1671. DOI: 10.1021/acs.jctc.8b01176
   for GFN1-xTB:
   * S. Grimme, C. Bannwarth, P. Shushkov, J. Chem. Theory Comput., 2017,
     13, 1989-2009. DOI: 10.1021/acs.jctc.7b00118
   for GFN0-xTB:
   * P. Pracht, E. Caldeweyher, S. Ehlert, S. Grimme, ChemRxiv, 2019, preprint.
     DOI: 10.26434/chemrxiv.8326202.v1
   for GFN-FF:
   * S. Spicher and S. Grimme, Angew. Chem. Int. Ed., 2020, 59, 15665-15673.
     DOI: 10.1002/anie.202004239
   
   for ALPB and GBSA implicit solvation:
   * S. Ehlert, M. Stahn, S. Spicher, S. Grimme, J. Chem. Theory Comput.,
     2021, 17, 4250-4261. DOI: 10.1021/acs.jctc.1c00471
   
   for ddCOSMO and CPCM-X implicit solvation:
   * M. Stahn, S. Ehlert, S. Grimme, J. Phys. Chem. A,
     2023, XX, XXXX-XXXX. DOI: 10.1021/acs.jpca.3c04382
   
   for DFT-D4:
   * E. Caldeweyher, C. Bannwarth and S. Grimme, J. Chem. Phys., 2017,
     147, 034112. DOI: 10.1063/1.4993215
   * E. Caldeweyher, S. Ehlert, A. Hansen, H. Neugebauer, S. Spicher,
     C. Bannwarth and S. Grimme, J. Chem. Phys., 2019, 150, 154122.
     DOI: 10.1063/1.5090222
   * E. Caldeweyher, J.-M. Mewes, S. Ehlert and S. Grimme, Phys. Chem. Chem. Phys.
     2020, 22, 8499-8512. DOI: 10.1039/D0CP00502A
   
   for sTDA-xTB:
   * S. Grimme and C. Bannwarth, J. Chem. Phys., 2016, 145, 054103.
     DOI: 10.1063/1.4959605
   
   in the mass-spec context:
   * V. Asgeirsson, C. Bauer and S. Grimme, Chem. Sci., 2017, 8, 4879.
     DOI: 10.1039/c7sc00601b
   * J. Koopman and S. Grimme, ACS Omega 2019, 4, 12, 15120-15133.
     DOI: 10.1021/acsomega.9b02011
   
   for metadynamics refer to:
   * S. Grimme, J. Chem. Theory Comput., 2019, 155, 2847-2862
     DOI: 10.1021/acs.jctc.9b00143
   
   for SPH calculations refer to:
   * S. Spicher and S. Grimme, J. Chem. Theory Comput., 2021, 17, 1701-1714
     DOI: 10.1021/acs.jctc.0c01306
   
   for ONIOM refer to:
   * C. Plett, A. Katbashev, S. Ehlert, S. Grimme, M. Bursch,
     Phys. Chem. Chem. Phys., 2023, 25, 17860-17868. DOI: 10.1039/D3CP02178E
   
   for DIPRO refer to:
   * J. Kohn, N. Gildemeister, S. Grimme, D. Fazzi, A. Hansen,
     J. Chem. Phys., 2023, just accepted.
   
   for PTB refer to:
   * S. Grimme, M. Mueller, A. Hansen, J. Chem. Phys., 2023, 158, 124111.
     DOI: 10.1063/5.0137838
   
   with help from (in alphabetical order)
   P. Atkinson, C. Bannwarth, F. Bohle, G. Brandenburg, E. Caldeweyher
   M. Checinski, S. Dohm, S. Ehlert, S. Ehrlich, I. Gerasimov, C. Hölzer
   A. Katbashev, J. Kohn, J. Koopman, C. Lavigne, S. Lehtola, F. März, M. Müller,
   F. Musil, H. Neugebauer, J. Pisarek, C. Plett, P. Pracht, F. Pultar,
   J. Seibert, P. Shushkov, S. Spicher, M. Stahn, M. Steiner, T. Strunk,
   J. Stückrath, T. Rose, and J. Unsleber
   
 * started run on 2025/04/03 at 13:51:47.865     
   ID    Z sym.   atoms
    1    6 C      1-6
    2    8 O      7
    3   17 Cl     8
    4    1 H      9-13

           -------------------------------------------------
          |                Calculation Setup                |
           -------------------------------------------------

          program call               : /srv/scratch/z5358697/.xtb/bin/xtb gas.coord --gfn2 --sp --chrg 0 --norestart --parallel 1
          hostname                   : k147
          coordinate file            : gas.coord
          omp threads                :                     1


           -------------------------------------------------
          |                 G F N 2 - x T B                 |
           -------------------------------------------------

        Reference                      10.1021/acs.jctc.8b01176
      * Hamiltonian:
        H0-scaling (s, p, d)           1.850000    2.230000    2.230000
        zeta-weighting                 0.500000
      * Dispersion:
        s8                             2.700000
        a1                             0.520000
        a2                             5.000000
        s9                             5.000000
      * Repulsion:
        kExp                           1.500000    1.000000
        rExp                           1.000000
      * Coulomb:
        alpha                          2.000000
        third order                    shell-resolved
        anisotropic                    true
        a3                             3.000000
        a5                             4.000000
        cn-shift                       1.200000
        cn-exp                         4.000000
        max-rad                        5.000000


          ...................................................
          :                      SETUP                      :
          :.................................................:
          :  # basis functions                  43          :
          :  # atomic orbitals                  42          :
          :  # shells                           22          :
          :  # electrons                        42          :
          :  max. iterations                   250          :
          :  Hamiltonian                  GFN2-xTB          :
          :  restarted?                      false          :
          :  GBSA solvation                  false          :
          :  PC potential                    false          :
          :  electronic temp.          300.0000000     K    :
          :  accuracy                    1.0000000          :
          :  -> integral cutoff          0.2500000E+02      :
          :  -> integral neglect         0.1000000E-07      :
          :  -> SCF convergence          0.1000000E-05 Eh   :
          :  -> wf. convergence          0.1000000E-03 e    :
          :  Broyden damping             0.4000000          :
          :  net charge                          0          :
          :  unpaired electrons                  0          :
          ...................................................

 iter      E             dE          RMSdq      gap      omega  full diag
   1    -24.2980890 -0.242981E+02  0.494E+00    4.10       0.0  T
   2    -24.3120308 -0.139419E-01  0.291E+00    4.04       1.0  T
   3    -24.3088742  0.315659E-02  0.816E-01    3.94       1.0  T
   4    -24.3131424 -0.426821E-02  0.297E-01    4.07       1.0  T
   5    -24.3138081 -0.665687E-03  0.866E-02    4.04       1.0  T
   6    -24.3138183 -0.101580E-04  0.491E-02    4.04       1.0  T
   7    -24.3138295 -0.112518E-04  0.288E-02    4.04       1.0  T
   8    -24.3138319 -0.232556E-05  0.202E-02    4.04       1.4  T
   9    -24.3138332 -0.138734E-05  0.147E-02    4.04       1.9  T
  10    -24.3138346 -0.134009E-05  0.598E-03    4.04       4.6  T
  11    -24.3138347 -0.146181E-06  0.194E-03    4.04      14.3  T
  12    -24.3138347 -0.153522E-07  0.119E-03    4.04      23.2  T
  13    -24.3138347 -0.440945E-08  0.810E-04    4.04      34.2  T
  14    -24.3138348 -0.301196E-08  0.402E-04    4.04      69.0  T

   *** convergence criteria satisfied after 14 iterations ***

         #    Occupation            Energy/Eh            Energy/eV
      -------------------------------------------------------------
         1        2.0000           -1.0457572             -28.4565
       ...           ...                  ...                  ...
        15        2.0000           -0.4802726             -13.0689
        16        2.0000           -0.4545277             -12.3683
        17        2.0000           -0.4464565             -12.1487
        18        2.0000           -0.4422073             -12.0331
        19        2.0000           -0.4097194             -11.1490
        20        2.0000           -0.4087116             -11.1216
        21        2.0000           -0.3875755             -10.5465 (HOMO)
        22                         -0.2391521              -6.5077 (LUMO)
        23                         -0.2293664              -6.2414
        24                         -0.1357985              -3.6953
        25                         -0.1071832              -2.9166
        26                          0.0246069               0.6696
       ...                                ...                  ...
        42                          0.6460988              17.5812
      -------------------------------------------------------------
                  HL-Gap            0.1484235 Eh            4.0388 eV
             Fermi-level           -0.3133638 Eh           -8.5271 eV

 SCC (total)                   0 d,  0 h,  0 min,  0.023 sec
 SCC setup                      ...        0 min,  0.000 sec (  0.911%)
 Dispersion                     ...        0 min,  0.000 sec (  0.300%)
 classical contributions        ...        0 min,  0.000 sec (  0.079%)
 integral evaluation            ...        0 min,  0.014 sec ( 62.476%)
 iterations                     ...        0 min,  0.005 sec ( 22.397%)
 molecular gradient             ...        0 min,  0.003 sec ( 13.215%)
 printout                       ...        0 min,  0.000 sec (  0.536%)

         :::::::::::::::::::::::::::::::::::::::::::::::::::::
         ::                     SUMMARY                     ::
         :::::::::::::::::::::::::::::::::::::::::::::::::::::
         :: total energy             -24.002556840688 Eh    ::
         :: gradient norm              0.011557442860 Eh/a0 ::
         :: HOMO-LUMO gap              4.038808210382 eV    ::
         ::.................................................::
         :: SCC energy               -24.313815081161 Eh    ::
         :: -> isotropic ES            0.024304059388 Eh    ::
         :: -> anisotropic ES          0.001385805643 Eh    ::
         :: -> anisotropic XC          0.007098976038 Eh    ::
         :: -> dispersion             -0.011027303256 Eh    ::
         :: repulsion energy           0.311258240473 Eh    ::
         :: add. restraining           0.000000000000 Eh    ::
         :: total charge              -0.000000000000 e     ::
         :::::::::::::::::::::::::::::::::::::::::::::::::::::

           -------------------------------------------------
          |                Property Printout                |
           -------------------------------------------------

    * Orbital Energies and Occupations

         #    Occupation            Energy/Eh            Energy/eV
      -------------------------------------------------------------
         1        2.0000           -1.0457572             -28.4565
       ...           ...                  ...                  ...
         9        2.0000           -0.5479500             -14.9105
        10        2.0000           -0.5406135             -14.7108
        11        2.0000           -0.5287065             -14.3868
        12        2.0000           -0.5039877             -13.7142
        13        2.0000           -0.4961188             -13.5001
        14        2.0000           -0.4942027             -13.4479
        15        2.0000           -0.4802726             -13.0689
        16        2.0000           -0.4545277             -12.3683
        17        2.0000           -0.4464565             -12.1487
        18        2.0000           -0.4422073             -12.0331
        19        2.0000           -0.4097194             -11.1490
        20        2.0000           -0.4087116             -11.1216
        21        2.0000           -0.3875755             -10.5465 (HOMO)
        22                         -0.2391521              -6.5077 (LUMO)
        23                         -0.2293664              -6.2414
        24                         -0.1357985              -3.6953
        25                         -0.1071832              -2.9166
        26                          0.0246069               0.6696
        27                          0.0295484               0.8041
        28                          0.0301665               0.8209
        29                          0.0416981               1.1347
        30                          0.0525890               1.4310
        31                          0.1134917               3.0883
        32                          0.1336769               3.6375
       ...                                ...                  ...
        42                          0.6460988              17.5812
      -------------------------------------------------------------
                  HL-Gap            0.1484235 Eh            4.0388 eV
             Fermi-level           -0.3133638 Eh           -8.5271 eV

     #   Z          covCN         q      C6AA      α(0)
     1   6 C        2.919    -0.033    28.829     8.805
     2   6 C        2.921    -0.039    28.981     8.828
     3   6 C        2.949    -0.040    28.995     8.832
     4   6 C        2.889     0.076    26.305     8.409
     5   6 C        2.876     0.142    24.898     8.180
     6   6 C        2.922    -0.071    29.761     8.946
     7   8 O        1.659    -0.370    20.269     6.078
     8  17 Cl       0.958    -0.165   104.336    15.627
     9   1 H        0.926     0.046     2.375     2.410
    10   1 H        0.926     0.048     2.345     2.395
    11   1 H        0.926     0.063     2.166     2.302
    12   1 H        0.926     0.039     2.459     2.452
    13   1 H        0.804     0.305     0.707     1.321

 Mol. C6AA /au·bohr⁶  :       2841.935175
 Mol. C8AA /au·bohr⁸  :      78732.448890
 Mol. α(0) /au        :         84.583854


Wiberg/Mayer (AO) data.
largest (>0.10) Wiberg bond orders for each atom

 ---------------------------------------------------------------------------
     #   Z sym  total        # sym  WBO       # sym  WBO       # sym  WBO
 ---------------------------------------------------------------------------
     1   6 C    3.992 --     6 C    1.442     2 C    1.436     9 H    0.970
     2   6 C    3.991 --     1 C    1.436     3 C    1.428    10 H    0.970
     3   6 C    3.988 --     2 C    1.428     4 C    1.423    11 H    0.967
                             6 C    0.103
     4   6 C    3.919 --     3 C    1.423     5 C    1.329     8 Cl   0.974
     5   6 C    3.945 --     6 C    1.371     4 C    1.329     7 O    1.089
     6   6 C    3.986 --     1 C    1.442     5 C    1.371    12 H    0.966
                             3 C    0.103
     7   8 O    2.145 --     5 C    1.089    13 H    0.886
     8  17 Cl   1.111 --     4 C    0.974
     9   1 H    0.997 --     1 C    0.970
    10   1 H    0.998 --     2 C    0.970
    11   1 H    0.996 --     3 C    0.967
    12   1 H    0.998 --     6 C    0.966
    13   1 H    0.907 --     7 O    0.886
 ---------------------------------------------------------------------------

Topologies differ in total number of bonds
Writing topology from bond orders to xtbtopo.mol

molecular dipole:
                 x           y           z       tot (Debye)
 q only:       -1.168       0.312       0.000
   full:       -1.144       0.529       0.000       3.203
molecular quadrupole (traceless):
                xx          xy          yy          xz          yz          zz
 q only:       -3.984      -0.960       6.226      -0.000       0.000      -2.242
  q+dip:       -3.237      -2.602       8.658      -0.000       0.000      -5.421
   full:       -3.636      -2.451       7.220      -0.000       0.000      -3.584


           -------------------------------------------------
          | TOTAL ENERGY              -24.002556840688 Eh   |
          | GRADIENT NORM               0.011557442860 Eh/α |
          | HOMO-LUMO GAP               4.038808210382 eV   |
           -------------------------------------------------

------------------------------------------------------------------------
 * finished run on 2025/04/03 at 13:51:48.041     
------------------------------------------------------------------------
 total:
 * wall-time:     0 d,  0 h,  0 min,  0.175 sec
 *  cpu-time:     0 d,  0 h,  0 min,  0.021 sec
 * ratio c/w:     0.117 speedup
 SCF:
 * wall-time:     0 d,  0 h,  0 min,  0.023 sec
 *  cpu-time:     0 d,  0 h,  0 min,  0.011 sec
 * ratio c/w:     0.492 speedup

