      -----------------------------------------------------------      
     |                   =====================                   |     
     |                           x T B                           |     
     |                   =====================                   |     
     |                         S. Grimme                         |     
     |          Mulliken Center for Theoretical Chemistry        |     
     |                    University of Bonn                     |     
      -----------------------------------------------------------      

   * xtb version 6.7.1 (edcfbbe) compiled by 'albert@albert-system' on 2024-07-22

   xtb is free software: you can redistribute it and/or modify it under
   the terms of the GNU Lesser General Public License as published by
   the Free Software Foundation, either version 3 of the License, or
   (at your option) any later version.
   
   xtb is distributed in the hope that it will be useful,
   but WITHOUT ANY WARRANTY; without even the implied warranty of
   MERCHANTABILITY or FITNESS FOR A PARTICULAR PURPOSE.  See the
   GNU Lesser General Public License for more details.
   
   Cite this work as:
   * C. Bannwarth, E. Caldeweyher, S. Ehlert, A. Hansen, P. Pracht,
     J. Seibert, S. Spicher, S. Grimme, WIREs Comput. Mol. Sci., 2020, 11,
     e01493. DOI: 10.1002/wcms.1493
   
   for GFN2-xTB:
   * C. Bannwarth, S. Ehlert and S. Grimme., J. Chem. Theory Comput., 2019,
     15, 1652-1671. DOI: 10.1021/acs.jctc.8b01176
   for GFN1-xTB:
   * S. Grimme, C. Bannwarth, P. Shushkov, J. Chem. Theory Comput., 2017,
     13, 1989-2009. DOI: 10.1021/acs.jctc.7b00118
   for GFN0-xTB:
   * P. Pracht, E. Caldeweyher, S. Ehlert, S. Grimme, ChemRxiv, 2019, preprint.
     DOI: 10.26434/chemrxiv.8326202.v1
   for GFN-FF:
   * S. Spicher and S. Grimme, Angew. Chem. Int. Ed., 2020, 59, 15665-15673.
     DOI: 10.1002/anie.202004239
   
   for ALPB and GBSA implicit solvation:
   * S. Ehlert, M. Stahn, S. Spicher, S. Grimme, J. Chem. Theory Comput.,
     2021, 17, 4250-4261. DOI: 10.1021/acs.jctc.1c00471
   
   for ddCOSMO and CPCM-X implicit solvation:
   * M. Stahn, S. Ehlert, S. Grimme, J. Phys. Chem. A,
     2023, XX, XXXX-XXXX. DOI: 10.1021/acs.jpca.3c04382
   
   for DFT-D4:
   * E. Caldeweyher, C. Bannwarth and S. Grimme, J. Chem. Phys., 2017,
     147, 034112. DOI: 10.1063/1.4993215
   * E. Caldeweyher, S. Ehlert, A. Hansen, H. Neugebauer, S. Spicher,
     C. Bannwarth and S. Grimme, J. Chem. Phys., 2019, 150, 154122.
     DOI: 10.1063/1.5090222
   * E. Caldeweyher, J.-M. Mewes, S. Ehlert and S. Grimme, Phys. Chem. Chem. Phys.
     2020, 22, 8499-8512. DOI: 10.1039/D0CP00502A
   
   for sTDA-xTB:
   * S. Grimme and C. Bannwarth, J. Chem. Phys., 2016, 145, 054103.
     DOI: 10.1063/1.4959605
   
   in the mass-spec context:
   * V. Asgeirsson, C. Bauer and S. Grimme, Chem. Sci., 2017, 8, 4879.
     DOI: 10.1039/c7sc00601b
   * J. Koopman and S. Grimme, ACS Omega 2019, 4, 12, 15120-15133.
     DOI: 10.1021/acsomega.9b02011
   
   for metadynamics refer to:
   * S. Grimme, J. Chem. Theory Comput., 2019, 155, 2847-2862
     DOI: 10.1021/acs.jctc.9b00143
   
   for SPH calculations refer to:
   * S. Spicher and S. Grimme, J. Chem. Theory Comput., 2021, 17, 1701-1714
     DOI: 10.1021/acs.jctc.0c01306
   
   for ONIOM refer to:
   * C. Plett, A. Katbashev, S. Ehlert, S. Grimme, M. Bursch,
     Phys. Chem. Chem. Phys., 2023, 25, 17860-17868. DOI: 10.1039/D3CP02178E
   
   for DIPRO refer to:
   * J. Kohn, N. Gildemeister, S. Grimme, D. Fazzi, A. Hansen,
     J. Chem. Phys., 2023, just accepted.
   
   for PTB refer to:
   * S. Grimme, M. Mueller, A. Hansen, J. Chem. Phys., 2023, 158, 124111.
     DOI: 10.1063/5.0137838
   
   with help from (in alphabetical order)
   P. Atkinson, C. Bannwarth, F. Bohle, G. Brandenburg, E. Caldeweyher
   M. Checinski, S. Dohm, S. Ehlert, S. Ehrlich, I. Gerasimov, C. Hölzer
   A. Katbashev, J. Kohn, J. Koopman, C. Lavigne, S. Lehtola, F. März, M. Müller,
   F. Musil, H. Neugebauer, J. Pisarek, C. Plett, P. Pracht, F. Pultar,
   J. Seibert, P. Shushkov, S. Spicher, M. Stahn, M. Steiner, T. Strunk,
   J. Stückrath, T. Rose, and J. Unsleber
   
 * started run on 2025/04/03 at 13:51:48.079     
   ID    Z sym.   atoms
    1    6 C      1-6
    2    8 O      7
    3   17 Cl     8
    4    1 H      9-13

           -------------------------------------------------
          |                Calculation Setup                |
           -------------------------------------------------

          program call               : /srv/scratch/z5358697/.xtb/bin/xtb solv.coord --gfn2 --sp --chrg 0 --norestart --parallel 1 --alpb water reference -I xtb_sp-xcontrol-inp
          hostname                   : k147
          coordinate file            : solv.coord
          omp threads                :                     1


           -------------------------------------------------
          |                 G F N 2 - x T B                 |
           -------------------------------------------------

        Reference                      10.1021/acs.jctc.8b01176
      * Hamiltonian:
        H0-scaling (s, p, d)           1.850000    2.230000    2.230000
        zeta-weighting                 0.500000
      * Dispersion:
        s8                             2.700000
        a1                             0.520000
        a2                             5.000000
        s9                             5.000000
      * Repulsion:
        kExp                           1.500000    1.000000
        rExp                           1.000000
      * Coulomb:
        alpha                          2.000000
        third order                    shell-resolved
        anisotropic                    true
        a3                             3.000000
        a5                             4.000000
        cn-shift                       1.200000
        cn-exp                         4.000000
        max-rad                        5.000000

      * Solvation model:               ALPB
        Solvent                        water
        Parameter file                 internal GFN2-xTB/ALPB
        Dielectric constant                8.0200E+01
        Reference state                gsolv=reference [X=1]
        Free energy shift                  2.8945E-03 Eh       1.8164E+00 kcal/mol
        Temperature                        2.9815E+02 K
        Density                            1.0000E+00 kg/L
        Solvent mass                       1.8000E+01 g/mol
        Interaction kernel             P16
        Born radius scaling (c1)           1.4744E+00
        Born radii integrator          GBOBC
        Born offset                        0.0000E+00 a0       0.0000E+00 AA
        H-bond correction              true
        Ion screening                  false
        Surface tension                    1.0000E-05 Eh       1.5569E+01 dyn/cm
        Grid points                               974 per atom

          ...................................................
          :                      SETUP                      :
          :.................................................:
          :  # basis functions                  43          :
          :  # atomic orbitals                  42          :
          :  # shells                           22          :
          :  # electrons                        42          :
          :  max. iterations                   250          :
          :  Hamiltonian                  GFN2-xTB          :
          :  restarted?                      false          :
          :  GBSA solvation                   true          :
          :  PC potential                    false          :
          :  electronic temp.          300.0000000     K    :
          :  accuracy                    1.0000000          :
          :  -> integral cutoff          0.2500000E+02      :
          :  -> integral neglect         0.1000000E-07      :
          :  -> SCF convergence          0.1000000E-05 Eh   :
          :  -> wf. convergence          0.1000000E-03 e    :
          :  Broyden damping             0.4000000          :
          :  net charge                          0          :
          :  unpaired electrons                  0          :
          ...................................................

 iter      E             dE          RMSdq      gap      omega  full diag
   1    -24.3127822 -0.243128E+02  0.512E+00    4.28       0.0  T
   2    -24.3212734 -0.849119E-02  0.292E+00    4.18       1.0  T
   3    -24.3207175  0.555833E-03  0.556E-01    4.06       1.0  T
   4    -24.3219369 -0.121940E-02  0.218E-01    4.15       1.0  T
   5    -24.3221646 -0.227674E-03  0.861E-02    4.15       1.0  T
   6    -24.3221762 -0.115984E-04  0.629E-02    4.14       1.0  T
   7    -24.3221922 -0.159890E-04  0.376E-02    4.15       1.0  T
   8    -24.3221990 -0.680206E-05  0.218E-02    4.15       1.3  T
   9    -24.3222026 -0.357432E-05  0.813E-03    4.15       3.4  T
  10    -24.3222027 -0.175326E-06  0.445E-03    4.15       6.2  T
  11    -24.3222028 -0.542024E-07  0.141E-03    4.15      19.6  T
  12    -24.3222028 -0.572657E-08  0.662E-04    4.15      41.9  T
  13    -24.3222028 -0.169494E-08  0.403E-04    4.15      68.9  T

   *** convergence criteria satisfied after 13 iterations ***

         #    Occupation            Energy/Eh            Energy/eV
      -------------------------------------------------------------
         1        2.0000           -1.0596820             -28.8354
       ...           ...                  ...                  ...
        15        2.0000           -0.4767230             -12.9723
        16        2.0000           -0.4483117             -12.1992
        17        2.0000           -0.4482570             -12.1977
        18        2.0000           -0.4362308             -11.8704
        19        2.0000           -0.4190203             -11.4021
        20        2.0000           -0.4057119             -11.0400
        21        2.0000           -0.3869190             -10.5286 (HOMO)
        22                         -0.2343989              -6.3783 (LUMO)
        23                         -0.2237449              -6.0884
        24                         -0.1396376              -3.7997
        25                         -0.1020665              -2.7774
        26                          0.0144734               0.3938
       ...                                ...                  ...
        42                          0.6527123              17.7612
      -------------------------------------------------------------
                  HL-Gap            0.1525200 Eh            4.1503 eV
             Fermi-level           -0.3106589 Eh           -8.4535 eV

 SCC (total)                   0 d,  0 h,  0 min,  0.023 sec
 SCC setup                      ...        0 min,  0.001 sec (  3.080%)
 Dispersion                     ...        0 min,  0.000 sec (  0.277%)
 classical contributions        ...        0 min,  0.000 sec (  0.083%)
 integral evaluation            ...        0 min,  0.014 sec ( 61.652%)
 iterations                     ...        0 min,  0.005 sec ( 20.436%)
 molecular gradient             ...        0 min,  0.003 sec ( 13.854%)
 printout                       ...        0 min,  0.000 sec (  0.536%)

         :::::::::::::::::::::::::::::::::::::::::::::::::::::
         ::                     SUMMARY                     ::
         :::::::::::::::::::::::::::::::::::::::::::::::::::::
         :: total energy             -24.010924885726 Eh    ::
         :: total w/o Gsasa/hb       -24.007067902982 Eh    ::
         :: gradient norm              0.000137967585 Eh/a0 ::
         :: HOMO-LUMO gap              4.150281675175 eV    ::
         ::.................................................::
         :: SCC energy               -24.322183126199 Eh    ::
         :: -> isotropic ES            0.035308633002 Eh    ::
         :: -> anisotropic ES         -0.001213901568 Eh    ::
         :: -> anisotropic XC          0.007093445625 Eh    ::
         :: -> dispersion             -0.010958003500 Eh    ::
         :: -> Gsolv                  -0.011822773083 Eh    ::
         ::    -> Gelec               -0.007965790339 Eh    ::
         ::    -> Gsasa               -0.000171787544 Eh    ::
         ::    -> Ghb                 -0.006579744361 Eh    ::
         ::    -> Gshift               0.002894549160 Eh    ::
         :: repulsion energy           0.311258240473 Eh    ::
         :: add. restraining           0.000000000000 Eh    ::
         :: total charge              -0.000000000000 e     ::
         :::::::::::::::::::::::::::::::::::::::::::::::::::::

           -------------------------------------------------
          |                Property Printout                |
           -------------------------------------------------

    * Orbital Energies and Occupations

         #    Occupation            Energy/Eh            Energy/eV
      -------------------------------------------------------------
         1        2.0000           -1.0596820             -28.8354
       ...           ...                  ...                  ...
         9        2.0000           -0.5421936             -14.7538
        10        2.0000           -0.5345626             -14.5462
        11        2.0000           -0.5228438             -14.2273
        12        2.0000           -0.4981819             -13.5562
        13        2.0000           -0.4908085             -13.3556
        14        2.0000           -0.4887058             -13.2984
        15        2.0000           -0.4767230             -12.9723
        16        2.0000           -0.4483117             -12.1992
        17        2.0000           -0.4482570             -12.1977
        18        2.0000           -0.4362308             -11.8704
        19        2.0000           -0.4190203             -11.4021
        20        2.0000           -0.4057119             -11.0400
        21        2.0000           -0.3869190             -10.5286 (HOMO)
        22                         -0.2343989              -6.3783 (LUMO)
        23                         -0.2237449              -6.0884
        24                         -0.1396376              -3.7997
        25                         -0.1020665              -2.7774
        26                          0.0144734               0.3938
        27                          0.0189858               0.5166
        28                          0.0192054               0.5226
        29                          0.0311980               0.8489
        30                          0.0657513               1.7892
        31                          0.1235736               3.3626
        32                          0.1367037               3.7199
       ...                                ...                  ...
        42                          0.6527123              17.7612
      -------------------------------------------------------------
                  HL-Gap            0.1525200 Eh            4.1503 eV
             Fermi-level           -0.3106589 Eh           -8.4535 eV

     #   Z          covCN         q      C6AA      α(0)
     1   6 C        2.919    -0.038    28.946     8.823
     2   6 C        2.921    -0.045    29.117     8.849
     3   6 C        2.949    -0.045    29.125     8.852
     4   6 C        2.889     0.073    26.365     8.418
     5   6 C        2.876     0.143    24.878     8.177
     6   6 C        2.922    -0.075    29.879     8.964
     7   8 O        1.659    -0.441    21.668     6.284
     8  17 Cl       0.958    -0.220   106.095    15.758
     9   1 H        0.926     0.066     2.135     2.285
    10   1 H        0.926     0.064     2.148     2.292
    11   1 H        0.926     0.068     2.106     2.270
    12   1 H        0.926     0.066     2.125     2.279
    13   1 H        0.804     0.384     0.515     1.127

 Mol. C6AA /au·bohr⁶  :       2829.934335
 Mol. C8AA /au·bohr⁸  :      78795.677396
 Mol. α(0) /au        :         84.377180


Wiberg/Mayer (AO) data.
largest (>0.10) Wiberg bond orders for each atom

 ---------------------------------------------------------------------------
     #   Z sym  total        # sym  WBO       # sym  WBO       # sym  WBO
 ---------------------------------------------------------------------------
     1   6 C    3.990 --     6 C    1.447     2 C    1.434     9 H    0.968
     2   6 C    3.988 --     1 C    1.434     3 C    1.429    10 H    0.967
     3   6 C    3.986 --     2 C    1.429     4 C    1.423    11 H    0.966
                             6 C    0.105
     4   6 C    3.896 --     3 C    1.423     5 C    1.333     8 Cl   0.943
     5   6 C    3.945 --     6 C    1.366     4 C    1.333     7 O    1.092
     6   6 C    3.984 --     1 C    1.447     5 C    1.366    12 H    0.963
                             3 C    0.105
     7   8 O    2.095 --     5 C    1.092    13 H    0.832
     8  17 Cl   1.068 --     4 C    0.943
     9   1 H    0.995 --     1 C    0.968
    10   1 H    0.996 --     2 C    0.967
    11   1 H    0.995 --     3 C    0.966
    12   1 H    0.996 --     6 C    0.963
    13   1 H    0.853 --     7 O    0.832
 ---------------------------------------------------------------------------

Topologies differ in total number of bonds
Writing topology from bond orders to xtbtopo.mol

molecular dipole:
                 x           y           z       tot (Debye)
 q only:       -1.708       0.544       0.000
   full:       -1.502       0.685       0.000       4.195
molecular quadrupole (traceless):
                xx          xy          yy          xz          yz          zz
 q only:       -4.425      -1.242       7.869      -0.000       0.000      -3.444
  q+dip:       -3.365      -2.822       9.751      -0.000       0.000      -6.386
   full:       -3.768      -2.660       8.295      -0.000       0.000      -4.527


           -------------------------------------------------
          | TOTAL ENERGY              -24.010924885726 Eh   |
          | GRADIENT NORM               0.000137967585 Eh/α |
          | HOMO-LUMO GAP               4.150281675175 eV   |
           -------------------------------------------------

------------------------------------------------------------------------
 * finished run on 2025/04/03 at 13:51:48.137     
------------------------------------------------------------------------
 total:
 * wall-time:     0 d,  0 h,  0 min,  0.058 sec
 *  cpu-time:     0 d,  0 h,  0 min,  0.019 sec
 * ratio c/w:     0.330 speedup
 SCF:
 * wall-time:     0 d,  0 h,  0 min,  0.023 sec
 *  cpu-time:     0 d,  0 h,  0 min,  0.012 sec
 * ratio c/w:     0.498 speedup

