      -----------------------------------------------------------      
     |                   =====================                   |     
     |                           x T B                           |     
     |                   =====================                   |     
     |                         S. Grimme                         |     
     |          Mulliken Center for Theoretical Chemistry        |     
     |                    University of Bonn                     |     
      -----------------------------------------------------------      

   * xtb version 6.7.1 (edcfbbe) compiled by 'albert@albert-system' on 2024-07-22

   xtb is free software: you can redistribute it and/or modify it under
   the terms of the GNU Lesser General Public License as published by
   the Free Software Foundation, either version 3 of the License, or
   (at your option) any later version.
   
   xtb is distributed in the hope that it will be useful,
   but WITHOUT ANY WARRANTY; without even the implied warranty of
   MERCHANTABILITY or FITNESS FOR A PARTICULAR PURPOSE.  See the
   GNU Lesser General Public License for more details.
   
   Cite this work as:
   * C. Bannwarth, E. Caldeweyher, S. Ehlert, A. Hansen, P. Pracht,
     J. Seibert, S. Spicher, S. Grimme, WIREs Comput. Mol. Sci., 2020, 11,
     e01493. DOI: 10.1002/wcms.1493
   
   for GFN2-xTB:
   * C. Bannwarth, S. Ehlert and S. Grimme., J. Chem. Theory Comput., 2019,
     15, 1652-1671. DOI: 10.1021/acs.jctc.8b01176
   for GFN1-xTB:
   * S. Grimme, C. Bannwarth, P. Shushkov, J. Chem. Theory Comput., 2017,
     13, 1989-2009. DOI: 10.1021/acs.jctc.7b00118
   for GFN0-xTB:
   * P. Pracht, E. Caldeweyher, S. Ehlert, S. Grimme, ChemRxiv, 2019, preprint.
     DOI: 10.26434/chemrxiv.8326202.v1
   for GFN-FF:
   * S. Spicher and S. Grimme, Angew. Chem. Int. Ed., 2020, 59, 15665-15673.
     DOI: 10.1002/anie.202004239
   
   for ALPB and GBSA implicit solvation:
   * S. Ehlert, M. Stahn, S. Spicher, S. Grimme, J. Chem. Theory Comput.,
     2021, 17, 4250-4261. DOI: 10.1021/acs.jctc.1c00471
   
   for ddCOSMO and CPCM-X implicit solvation:
   * M. Stahn, S. Ehlert, S. Grimme, J. Phys. Chem. A,
     2023, XX, XXXX-XXXX. DOI: 10.1021/acs.jpca.3c04382
   
   for DFT-D4:
   * E. Caldeweyher, C. Bannwarth and S. Grimme, J. Chem. Phys., 2017,
     147, 034112. DOI: 10.1063/1.4993215
   * E. Caldeweyher, S. Ehlert, A. Hansen, H. Neugebauer, S. Spicher,
     C. Bannwarth and S. Grimme, J. Chem. Phys., 2019, 150, 154122.
     DOI: 10.1063/1.5090222
   * E. Caldeweyher, J.-M. Mewes, S. Ehlert and S. Grimme, Phys. Chem. Chem. Phys.
     2020, 22, 8499-8512. DOI: 10.1039/D0CP00502A
   
   for sTDA-xTB:
   * S. Grimme and C. Bannwarth, J. Chem. Phys., 2016, 145, 054103.
     DOI: 10.1063/1.4959605
   
   in the mass-spec context:
   * V. Asgeirsson, C. Bauer and S. Grimme, Chem. Sci., 2017, 8, 4879.
     DOI: 10.1039/c7sc00601b
   * J. Koopman and S. Grimme, ACS Omega 2019, 4, 12, 15120-15133.
     DOI: 10.1021/acsomega.9b02011
   
   for metadynamics refer to:
   * S. Grimme, J. Chem. Theory Comput., 2019, 155, 2847-2862
     DOI: 10.1021/acs.jctc.9b00143
   
   for SPH calculations refer to:
   * S. Spicher and S. Grimme, J. Chem. Theory Comput., 2021, 17, 1701-1714
     DOI: 10.1021/acs.jctc.0c01306
   
   for ONIOM refer to:
   * C. Plett, A. Katbashev, S. Ehlert, S. Grimme, M. Bursch,
     Phys. Chem. Chem. Phys., 2023, 25, 17860-17868. DOI: 10.1039/D3CP02178E
   
   for DIPRO refer to:
   * J. Kohn, N. Gildemeister, S. Grimme, D. Fazzi, A. Hansen,
     J. Chem. Phys., 2023, just accepted.
   
   for PTB refer to:
   * S. Grimme, M. Mueller, A. Hansen, J. Chem. Phys., 2023, 158, 124111.
     DOI: 10.1063/5.0137838
   
   with help from (in alphabetical order)
   P. Atkinson, C. Bannwarth, F. Bohle, G. Brandenburg, E. Caldeweyher
   M. Checinski, S. Dohm, S. Ehlert, S. Ehrlich, I. Gerasimov, C. Hölzer
   A. Katbashev, J. Kohn, J. Koopman, C. Lavigne, S. Lehtola, F. März, M. Müller,
   F. Musil, H. Neugebauer, J. Pisarek, C. Plett, P. Pracht, F. Pultar,
   J. Seibert, P. Shushkov, S. Spicher, M. Stahn, M. Steiner, T. Strunk,
   J. Stückrath, T. Rose, and J. Unsleber
   
 * started run on 2025/04/03 at 13:52:53.865     
   ID    Z sym.   atoms
    1    6 C      1-6
    2    8 O      7
    3   17 Cl     8
    4    1 H      9-13

           -------------------------------------------------
          |                Calculation Setup                |
           -------------------------------------------------

          program call               : /srv/scratch/z5358697/.xtb/bin/xtb xtb_opt.coord --opt normal --orca -I xtb_opt-xcontrol-inp
          hostname                   : k147
          coordinate file            : xtb_opt.coord
          omp threads                :                     2

           -------------------------------------------------
          |                   Orca driver                   |
           -------------------------------------------------
orca executable           : /apps/z_install_tree/linux-rocky8-ivybridge/gcc-12.2.0/orca-6.0.0-srtngmq3qlimg2qxbl6avaaiffipurdx/bin/orca
orca input file           : xtb_opt.inp
orca input line           : 
orca parallel             : true
orca number of threads    : 2
                         * ORCA takes the control...
  ------------------------------------------------------------------------

                                 *****************
                                 * O   R   C   A *
                                 *****************

                                            #,                                       
                                            ###                                      
                                            ####                                     
                                            #####                                    
                                            ######                                   
                                           ########,                                 
                                     ,,################,,,,,                         
                               ,,#################################,,                 
                          ,,##########################################,,             
                       ,#########################################, ''#####,          
                    ,#############################################,,   '####,        
                  ,##################################################,,,,####,       
                ,###########''''           ''''###############################       
              ,#####''   ,,,,##########,,,,          '''####'''          '####       
            ,##' ,,,,###########################,,,                        '##       
           ' ,,###''''                  '''############,,,                           
         ,,##''                                '''############,,,,        ,,,,,,###''
      ,#''                                            '''#######################'''  
     '                                                          ''''####''''         
             ,#######,   #######,   ,#######,      ##                                
            ,#'     '#,  ##    ##  ,#'     '#,    #''#        ,####,   ,####,        
            ##       ##  ##   ,#'  ##            #'  '#       #'       #'  '#        
            ##       ##  #######   ##           ,######,      #####,   #    #        
            '#,     ,#'  ##    ##  '#,     ,#' ,#      #,     #,   #   #,  ,#        
             '#######'   ##     ##  '#######'  #'      '#     '####' # '####'        



                #########################################################
                #                        -***-                          #
                #          Department of theory and spectroscopy        #
                #                                                       #
                #                      Frank Neese                      #
                #                                                       #
                #     Directorship, Architecture, Infrastructure        #
                #                    SHARK, DRIVERS                     #
                #        Core code/Algorithms in most modules           #
                #                                                       #
                #        Max Planck Institute fuer Kohlenforschung      #
                #                Kaiser Wilhelm Platz 1                 #
                #                 D-45470 Muelheim/Ruhr                 #
                #                      Germany                          #
                #                                                       #
                #                  All rights reserved                  #
                #                        -***-                          #
                #########################################################


                         Program Version 6.0.0  -   RELEASE  -


 With contributions from (in alphabetic order):
   Daniel Aravena         : Magnetic Suceptibility
   Michael Atanasov       : Ab Initio Ligand Field Theory (pilot matlab implementation)
   Alexander A. Auer      : GIAO ZORA, VPT2 properties, NMR spectrum
   Ute Becker             : All parallelization in ORCA, NUMFREQ, NUMCALC
   Giovanni Bistoni       : ED, misc. LED, open-shell LED, HFLD
   Martin Brehm           : Molecular dynamics
   Dmytro Bykov           : pre 5.0 version of the SCF Hessian
   Marcos Casanova-Páez   : Triplet and SCS-CIS(D). UHF-(DLPNO)-IP/EA/STEOM-CCSD. UHF-CVS-IP/STEOM-CCSD
   Vijay G. Chilkuri      : MRCI spin determinant printing, contributions to CSF-ICE
   Pauline Colinet        : FMM embedding
   Dipayan Datta          : RHF DLPNO-CCSD density
   Achintya Kumar Dutta   : EOM-CC, STEOM-CC
   Nicolas Foglia         : Exact transition moments, OPA infrastructure, MCD improvements
   Dmitry Ganyushin       : Spin-Orbit,Spin-Spin,Magnetic field MRCI
   Miquel Garcia          : C-PCM and meta-GGA Hessian, CCSD/C-PCM, Gaussian charge scheme
   Tiago L. C. Gouveia    : GS-ROHF, GS-ROCIS
   Yang Guo               : DLPNO-NEVPT2, F12-NEVPT2, CIM, IAO-localization
   Andreas Hansen         : Spin unrestricted coupled pair/coupled cluster methods
   Ingolf Harden          : AUTO-CI MPn and infrastructure 
   Benjamin Helmich-Paris : MC-RPA, TRAH-(SCF,CASSCF), AVAS, COSX integrals, SCF dyn. polar.
   Lee Huntington         : MR-EOM, pCC
   Robert Izsak           : Overlap fitted RIJCOSX, COSX-SCS-MP3, EOM
   Riya Kayal             : Wick's Theorem for AUTO-CI, AUTO-CI UHF-CCSDT
   Emily Kempfer          : AUTO-CI, RHF CISDT and CCSDT
   Christian Kollmar      : KDIIS, OOCD, Brueckner-CCSD(T), CCSD density, CASPT2, CASPT2-K, improved NEVPT2
   Axel Koslowski         : Symmetry handling
   Simone Kossmann        : Meta GGA functionals, TD-DFT gradient, OOMP2, (MP2 Hessian; deprecated post 5.0)
   Lucas Lang             : DCDCAS
   Marvin Lechner         : AUTO-CI (C++ implementation), FIC-MRCC
   Spencer Leger          : CASSCF response
   Dagmar Lenk            : GEPOL surface, SMD, ORCA-2-JSON
   Dimitrios Liakos       : Extrapolation schemes; Compound Job, initial MDCI parallelization
   Dimitrios Manganas     : Further ROCIS development; embedding schemes. LFT, Crystal Embedding
   Dimitrios Pantazis     : SARC Basis sets
   Anastasios Papadopoulos: AUTO-CI, single reference methods and gradients
   Taras Petrenko         : pre 6.0 DFT Hessian and TD-DFT gradient, (ASA, deprecated), ECA, 1-Electron XAS/XES, NRVS
   Peter Pinski           : DLPNO-MP2, DLPNO-MP2 Gradient
   Christoph Reimann      : Effective Core Potentials
   Marius Retegan         : Local ZFS, SOC
   Christoph Riplinger    : Optimizer, TS searches, QM/MM, DLPNO-CCSD(T), (RO)-DLPNO pert. Triples
   Michael Roemelt        : Original ROCIS implementation
   Masaaki Saitow         : Open-shell DLPNO-CCSD energy and density
   Barbara Sandhoefer     : DKH picture change effects
   Kantharuban Sivalingam : CASSCF convergence/infrastructure, NEVPT2 and variants, FIC-MRCI
   Bernardo de Souza      : ESD, SOC TD-DFT
   Georgi Stoychev        : AutoAux, RI-MP2 NMR, DLPNO-MP2 response, X2C
   Van Anh Tran           : RI-MP2 g-tensors
   Willem Van den Heuvel  : Paramagnetic NMR
   Zikuan Wang            : NOTCH, Electric field optimization 
   Frank Wennmohs         : Technical directorship and infrastructure
   Hang Xu                : AUTO-CI-Response properties 


 We gratefully acknowledge several colleagues who have allowed us to
 interface, adapt or use parts of their codes:
   Stefan Grimme, W. Hujo, H. Kruse, P. Pracht,  : VdW corrections, initial TS optimization,
                  C. Bannwarth, S. Ehlert,         DFT functionals, gCP, sTDA/sTD-DF
                  L. Wittmann, M. Mueller
   Ed Valeev, F. Pavosevic, A. Kumar             : LibInt (2-el integral package), F12 methods
   Garnet Chan, S. Sharma, J. Yang, R. Olivares  : DMRG
   Ulf Ekstrom                                   : XCFun DFT Library
   Mihaly Kallay                                 : mrcc  (arbitrary order and MRCC methods)
   Frank Weinhold                                : gennbo (NPA and NBO analysis)
   Simon Mueller                                 : openCOSMO-RS
   Christopher J. Cramer and Donald G. Truhlar   : smd solvation model
   Lars Goerigk                                  : TD-DFT with DH, B97 family of functionals
   V. Asgeirsson, H. Jonsson                     : NEB implementation
   FAccTs GmbH                                   : IRC, NEB, NEB-TS, DLPNO-Multilevel, CI-OPT
                                                   MM, QMMM, 2- and 3-layer-ONIOM, Crystal-QMMM,
                                                   LR-CPCM, SF, NACMEs, symmetry and pop. for TD-DFT,
                                                   nearIR, NL-DFT gradient (VV10), updates on ESD,
                                                   ML-optimized integration grids, MBIS, APM,
                                                   GOAT, DOCKER, SOLVATOR, interface openCOSMO-RS
   S Lehtola, MJT Oliveira, MAL Marques          : LibXC Library
   Liviu Ungur et al                             : ANISO software


 Your calculation uses the libint2 library for the computation of 2-el integrals
 For citations please refer to: http://libint.valeyev.net

 Your ORCA version has been built with support for libXC version: 6.2.2
 For citations please refer to: https://libxc.gitlab.io

 This ORCA versions uses:
   CBLAS   interface :  Fast vector & matrix operations
   LAPACKE interface :  Fast linear algebra routines
   SCALAPACK package :  Parallel linear algebra routines
   Shared memory     :  Shared parallel matrices
   BLAS/LAPACK       :  OpenBLAS 0.3.27  USE64BITINT DYNAMIC_ARCH NO_AFFINITY SkylakeX SINGLE_THREADED
        Core in use  :  SkylakeX
   Copyright (c) 2011-2014, The OpenBLAS Project




***************************************
The coordinates will be read from file: xtb_opt.xyz
***************************************


Your calculation utilizes the geometrical counterpoise correction gCP
Please cite in your paper:
H.Kruse, S. Grimme J.Chem.Phys., 136, (2012), 154101 
   

Your calculation utilizes the atom-pairwise dispersion correction
based on EEQ partial charges (D4)


Your calculation utilizes the SMD solvation module
Please cite in your paper:
A.V. Marenich, C.J. Cramer, D.G. Truhlar J. Phys. Chem. B, 113, (2009), 6378 

================================================================================

----- Orbital basis set information -----
Your calculation utilizes the basis: def2-mTZVPP
   Stefan Grimme, Andreas Hansen, Sebastian Ehlert, and Jan-Michael Mewes 
   J. Chem. Phys. 154, 064103 (2021). DOI: 10.1063/5.0040021

----- AuxJ basis set information -----
Your calculation utilizes the auxiliary basis: def2/J
   F. Weigend, Phys. Chem. Chem. Phys. 8, 1057 (2006).

================================================================================
                                        WARNINGS
                       Please study these warnings very carefully!
================================================================================

Using LibXC functional ID 497 : Re-regularized SCAN exchange by Furness et al
[ 1]  J. W. Furness, A. D. Kaplan, J. Ning, J. P. Perdew, and J. Sun.,  J. Phys. Chem. Lett. 11, 8208-8215 (2020)
[ 2]  J. W. Furness, A. D. Kaplan, J. Ning, J. P. Perdew, and J. Sun.,  J. Phys. Chem. Lett. 11, 9248-9248 (2020)
Using LibXC functional ID 498 : Re-regularized SCAN correlation by Furness et al
[ 1]  J. W. Furness, A. D. Kaplan, J. Ning, J. P. Perdew, and J. Sun.,  J. Phys. Chem. Lett. 11, 8208-8215 (2020)
[ 2]  J. W. Furness, A. D. Kaplan, J. Ning, J. P. Perdew, and J. Sun.,  J. Phys. Chem. Lett. 11, 9248-9248 (2020)
Using LibXC functional ID 497 : Re-regularized SCAN exchange by Furness et al
[ 1]  J. W. Furness, A. D. Kaplan, J. Ning, J. P. Perdew, and J. Sun.,  J. Phys. Chem. Lett. 11, 8208-8215 (2020)
[ 2]  J. W. Furness, A. D. Kaplan, J. Ning, J. P. Perdew, and J. Sun.,  J. Phys. Chem. Lett. 11, 9248-9248 (2020)
Using LibXC functional ID 498 : Re-regularized SCAN correlation by Furness et al
[ 1]  J. W. Furness, A. D. Kaplan, J. Ning, J. P. Perdew, and J. Sun.,  J. Phys. Chem. Lett. 11, 8208-8215 (2020)
[ 2]  J. W. Furness, A. D. Kaplan, J. Ning, J. P. Perdew, and J. Sun.,  J. Phys. Chem. Lett. 11, 9248-9248 (2020)

================================================================================
                                       INPUT FILE
================================================================================
NAME = xtb_opt.inp
|  1> ! r2scan-3c def2/J RI DEFGRID2 scfconv7 ENGRAD tightSCF miniprint
|  2> %cpcm
|  3>     smd true
|  4>     smdsolvent "water"
|  5> end
|  6> * xyzfile 0 1 xtb_opt.xyz
|  7> 
|  8>                          ****END OF INPUT****
================================================================================

                     *******************************
                     * Energy+Gradient Calculation *
                     *******************************

---------------------------------
CARTESIAN COORDINATES (ANGSTROEM)
---------------------------------
  C     -2.412031   -0.102260   -0.000021
  C     -1.829050   -1.357383    0.000122
  C     -0.449246   -1.475512    0.000019
  C      0.334659   -0.337854    0.000051
  C     -0.236847    0.935753    0.000051
  C     -1.624450    1.034649   -0.000107
  O      0.576367    2.017901    0.000075
  Cl     2.071502   -0.473805   -0.000072
  H     -3.485799   -0.003604    0.000116
  H     -2.440323   -2.244804   -0.000011
  H      0.025537   -2.442801   -0.000117
  H     -2.083429    2.011794   -0.000088
  H      0.054947    2.836000    0.000067

----------------------------
CARTESIAN COORDINATES (A.U.)
----------------------------
  NO LB      ZA    FRAG     MASS         X           Y           Z
   0 C     6.0000    0    12.011   -4.558078   -0.193244   -0.000040
   1 C     6.0000    0    12.011   -3.456404   -2.565082    0.000230
   2 C     6.0000    0    12.011   -0.848952   -2.788313    0.000035
   3 C     6.0000    0    12.011    0.632414   -0.638452    0.000096
   4 C     6.0000    0    12.011   -0.447576    1.768318    0.000097
   5 C     6.0000    0    12.011   -3.069766    1.955203   -0.000201
   6 O     8.0000    0    15.999    1.089177    3.813280    0.000142
   7 Cl   17.0000    0    35.453    3.914571   -0.895361   -0.000136
   8 H     1.0000    0     1.008   -6.587206   -0.006811    0.000220
   9 H     1.0000    0     1.008   -4.611542   -4.242065   -0.000021
  10 H     1.0000    0     1.008    0.048258   -4.616225   -0.000221
  11 H     1.0000    0     1.008   -3.937110    3.801739   -0.000166
  12 H     1.0000    0     1.008    0.103835    5.359264    0.000126

------------------------------------------------------------------------------
                   ___                                                        
                  /   \      - P O W E R E D   B Y -                         
                 /     \                                                     
                 |  |  |   _    _      __       _____    __    __             
                 |  |  |  | |  | |    /  \     |  _  \  |  |  /  |          
                  \  \/   | |  | |   /    \    | | | |  |  | /  /          
                 / \  \   | |__| |  /  /\  \   | |_| |  |  |/  /          
                |  |  |   |  __  | /  /__\  \  |    /   |      \           
                |  |  |   | |  | | |   __   |  |    \   |  |\   \          
                \     /   | |  | | |  |  |  |  | |\  \  |  | \   \       
                 \___/    |_|  |_| |__|  |__|  |_| \__\ |__|  \__/        
                                                                              
                      - O R C A' S   B I G   F R I E N D -                    
                                      &                                       
                       - I N T E G R A L  F E E D E R -                       
                                                                              
 v1 FN, 2020, v2 2021, v3 2022-2024                                           
------------------------------------------------------------------------------


----------------------
SHARK INTEGRAL PACKAGE
----------------------

Number of atoms                             ...     13
Number of basis functions                   ...    190
Number of shells                            ...     90
Maximum angular momentum                    ...      2
Integral batch strategy                     ... SHARK/LIBINT Hybrid
RI-J (if used) integral strategy            ... SPLIT-RIJ (Revised 2003 algorithm where possible)
Printlevel                                  ...      1
Contraction scheme used                     ... SEGMENTED contraction
Prescreening option                         ... SCHWARTZ
   Thresh                                   ... 3.000e-11
   Tcut                                     ... 1.000e-12
   Tpresel                                  ... 1.000e-12 
Coulomb Range Separation                    ... NOT USED
Exchange Range Separation                   ... NOT USED
Multipole approximations                    ... NOT USED
Finite Nucleus Model                        ... NOT USED
CABS basis                                  ... NOT available
Auxiliary Coulomb fitting basis             ... AVAILABLE
   # of basis functions in Aux-J            ...    449
   # of shells in Aux-J                     ...    147
   Maximum angular momentum in Aux-J        ...      4
Auxiliary J/K fitting basis                 ... NOT available
Auxiliary Correlation fitting basis         ... NOT available
Auxiliary 'external' fitting basis          ... NOT available

Checking pre-screening integrals            ... done (  0.0 sec) Dimension = 90
Check shell pair data                       ... done (  0.0 sec)
Shell pair information
Shell pair cut-off parameter TPreSel        ...   1.0e-12
Total number of shell pairs                 ...      4095
Shell pairs after pre-screening             ...      3752
Total number of primitive shell pairs       ...     15962
Primitive shell pairs kept                  ...     10373
          la=0 lb=0:   1112 shell pairs
          la=1 lb=0:   1385 shell pairs
          la=1 lb=1:    441 shell pairs
          la=2 lb=0:    469 shell pairs
          la=2 lb=1:    290 shell pairs
          la=2 lb=2:     55 shell pairs

Calculating one electron integrals          ... done (  0.0 sec)
Calculating RI/J V-Matrix + Cholesky decomp.... done (  0.1 sec)
Calculating Nuclear repulsion               ... done (  0.0 sec) ENN=    406.972067387689 Eh

Diagonalization of the overlap matrix:
Smallest eigenvalue                        ... 2.787e-05
Time for diagonalization                   ...    0.003 sec
Threshold for overlap eigenvalues          ... 1.000e-07
Number of eigenvalues below threshold      ... 0
Time for construction of square roots      ...    0.014 sec
Total time needed                          ...    0.025 sec

-------------------
DFT GRID GENERATION
-------------------

General Integration Accuracy     IntAcc      ... 4.388
Radial Grid Type                 RadialGrid  ... OptM3 with GC (2021)
Angular Grid (max. ang.)         AngularGrid ... 4 (Lebedev-302)
Angular grid pruning method      GridPruning ... 4 (adaptive)
Weight generation scheme         WeightScheme... mBecke (2022)
Basis function cutoff            BFCut       ... 1.0000e-11
Integration weight cutoff        WCut        ... 1.0000e-14
Partially contracted basis set               ... off
Rotationally invariant grid construction     ... off
Angular grids for H and He will be reduced by one unit
Diffuse basis detected: some atoms will have their outermost
                        angular grid increased by 1.

Total number of grid points                  ...    65887
Total number of batches                      ...     1039
Average number of points per batch           ...       63
Average number of grid points per atom       ...     5068
Initializing property integral containers    ... done (  0.0 sec)

SHARK setup successfully completed in   1.1 seconds

Maximum memory used throughout the entire STARTUP-calculation: 30.9 MB
Occupation numbers will be reassigned to an Aufbau configuration
             **** ENERGY FILE WAS UPDATED (xtb_opt.en.tmp) ****
Finished Guess after   0.2 sec
Maximum memory used throughout the entire GUESS-calculation: 13.2 MB
--------------------
CPCM SOLVATION MODEL
--------------------
CPCM parameters:
  Epsilon                                         ...      78.3550
  Refrac                                          ...       1.3328
  Rsolv                                           ...       1.3000
  Surface type                                    ... GAUSSIAN VDW
  Discretization scheme                           ... Constant charge density
    Threshold for H atoms                         ...       5.0000 (charges/Ang^2)
    Threshold for non-H atoms                     ...       5.0000 (charges/Ang^2)
  Epsilon function type                           ...         CPCM
Solvent:                                          ... WATER
SMD-CDS solvent descriptors:
  Soln                                            ...       1.3328
  Soln25                                          ...       1.3323
  Sola                                            ...       0.0000
  Solb                                            ...       0.0000
  Solg                                            ...       0.0000
  Solc                                            ...       0.0000
  Solh                                            ...       0.0000
Radii:
  Scheme                                          ... Element-dependent radii
  Radius for C  used is    3.4960 Bohr (=   1.8500 Ang.)
  Radius for O  used is    2.8724 Bohr (=   1.5200 Ang.)
  Radius for Cl used is    4.4975 Bohr (=   2.3800 Ang.)
  Radius for H  used is    2.2677 Bohr (=   1.2000 Ang.)
Calculating surface                               ...        done! (  0.0s)
Cavity surface points                             ...         1114
Cavity Volume                                     ...     927.9804
Cavity Surface-area                               ...     544.3435
Calculating surface distance matrix               ...        done! (  0.0s)
Performing Cholesky decomposition & store         ...        done! (  0.1s)
Overall time for CPCM initialization              ...                 0.1s

----------------------------------------D-I-I-S--------------------------------------------
Iteration    Energy (Eh)           Delta-E    RMSDP     MaxDP     DIISErr   Damp  Time(sec)
-------------------------------------------------------------------------------------------
               ***  Starting incremental Fock matrix formation  ***
                              *** Initializing SOSCF ***
---------------------------------------S-O-S-C-F--------------------------------------
Iteration    Energy (Eh)           Delta-E    RMSDP     MaxDP     MaxGrad    Time(sec)
--------------------------------------------------------------------------------------
    1    -766.9948122237244661     0.00e+00  1.69e-06  3.70e-05  3.80e-06     2.9
               *** Restarting incremental Fock matrix formation ***
    2    -766.9948122242301451    -5.06e-10  1.03e-06  2.10e-05  5.63e-06     2.5
                  *** Gradient check signals convergence ***

               *****************************************************
               *                     SUCCESS                       *
               *           SCF CONVERGED AFTER   2 CYCLES          *
               *****************************************************


SMD CDS free energy correction energy :                 3.39328     Kcal/mol
Total Energy after SMD CDS correction =              -766.989404694 Eh
             **** ENERGY FILE WAS UPDATED (xtb_opt.en.tmp) ****

----------------
TOTAL SCF ENERGY
----------------

Total Energy       :       -766.98940469378067 Eh          -20870.84275 eV

Components:
Nuclear Repulsion  :        406.97206738768881 Eh           11074.27296 eV
Electronic Energy  :      -1173.94767888166530 Eh          -31944.74038 eV
One Electron Energy:      -1858.87391650806808 Eh          -50582.53083 eV
Two Electron Energy:        684.92623762640278 Eh           18637.79045 eV
CPCM Dielectric    :         -0.01920073025375 Eh              -0.52248 eV
SMD CDS (Gcds)     :          0.00540753044944 Eh               0.14715 eV

Virial components:
Potential Energy   :      -1531.73056964542093 Eh          -41680.50780 eV
Kinetic Energy     :        764.74116495164014 Eh           20809.66504 eV
Virial Ratio       :          2.00293987017461

DFT components:
N(Alpha)           :       33.000005575858 electrons
N(Beta)            :       33.000005575858 electrons
N(Total)           :       66.000011151716 electrons
E(X)               :      -68.884846698796 Eh       
E(C)               :       -2.266914550442 Eh       
E(XC)              :      -71.151761249238 Eh       

CPCM Solvation Model Properties:
Surface-charge          :         -0.02925161905842
Corrected charge        :          0.00000000000000
Outlying charge corr.   :          0.00006575888888 Eh               0.00179 eV
Free-energy (cav+disp)  :          0.00540753044944 Eh               0.14715 eV

---------------
SCF CONVERGENCE
---------------

  Last Energy change         ...    5.0568e-10  Tolerance :   1.0000e-07
  Last MAX-Density change    ...    2.0962e-05  Tolerance :   1.0000e-07
  Last RMS-Density change    ...    1.0293e-06  Tolerance :   5.0000e-09
  Last DIIS Error            ...    1.5994e-05  Tolerance :   1.0000e-07
  Last Orbital Gradient      ...    5.6271e-06  Tolerance :   1.0000e-04
  Last Orbital Rotation      ...    2.0818e-05  Tolerance :   1.0000e-04


----------------
ORBITAL ENERGIES
----------------

  NO   OCC          E(Eh)            E(eV) 
   0   2.0000    -101.222903     -2754.4152 
   1   2.0000     -18.990884      -516.7682 
   2   2.0000     -10.110639      -275.1245 
   3   2.0000     -10.097098      -274.7560 
   4   2.0000     -10.045814      -273.3605 
   5   2.0000     -10.039966      -273.2014 
   6   2.0000     -10.039416      -273.1864 
   7   2.0000     -10.034973      -273.0655 
   8   2.0000      -9.378717      -255.2079 
   9   2.0000      -7.124900      -193.8784 
  10   2.0000      -7.115099      -193.6117 
  11   2.0000      -7.114458      -193.5942 
  12   2.0000      -1.036993       -28.2180 
  13   2.0000      -0.858350       -23.3569 
  14   2.0000      -0.806306       -21.9407 
  15   2.0000      -0.720983       -19.6189 
  16   2.0000      -0.703523       -19.1438 
  17   2.0000      -0.605603       -16.4793 
  18   2.0000      -0.570414       -15.5217 
  19   2.0000      -0.522556       -14.2195 
  20   2.0000      -0.470560       -12.8046 
  21   2.0000      -0.452416       -12.3109 
  22   2.0000      -0.418146       -11.3783 
  23   2.0000      -0.403513       -10.9801 
  24   2.0000      -0.402114       -10.9421 
  25   2.0000      -0.371306       -10.1038 
  26   2.0000      -0.340808        -9.2739 
  27   2.0000      -0.334786        -9.1100 
  28   2.0000      -0.320713        -8.7271 
  29   2.0000      -0.312555        -8.5051 
  30   2.0000      -0.287998        -7.8368 
  31   2.0000      -0.237631        -6.4663 
  32   2.0000      -0.212870        -5.7925 
  33   0.0000      -0.042235        -1.1493 
  34   0.0000      -0.025947        -0.7060 
  35   0.0000       0.006895         0.1876 
  36   0.0000       0.079872         2.1734 
  37   0.0000       0.114017         3.1026 
  38   0.0000       0.116568         3.1720 
  39   0.0000       0.118827         3.2335 
  40   0.0000       0.137473         3.7408 
  41   0.0000       0.153600         4.1797 
  42   0.0000       0.165715         4.5093 
  43   0.0000       0.186795         5.0829 
*Only the first 10 virtual orbitals were printed.
Total SCF time: 0 days 0 hours 0 min 5 sec 
Finished LeanSCF after   6.0 sec

Maximum memory used throughout the entire LEANSCF-calculation: 20.9 MB


-------------------------------------------------------------------------------
                          DFT DISPERSION CORRECTION                            
                                                                               
                                DFTD4 V3.4.0                                   
-------------------------------------------------------------------------------
-------------------------   ----------------
Dispersion correction           -0.004532020
-------------------------   ----------------

------------------   -----------------
gCP correction             0.005246224
------------------   -----------------

-------------------------   --------------------
FINAL SINGLE POINT ENERGY      -766.988690490400
-------------------------   --------------------

------------------------------------------------------------------------------
                         ORCA SCF GRADIENT CALCULATION
------------------------------------------------------------------------------

Nuc. rep. gradient        (SHARK) ... done (  0.0 sec)
HCore & Overlap gradient  (SHARK) ... done (  0.2 sec)
Split-RIJ-J gradient      (SHARK) ... done (  1.3 sec)
XC gradient                       ... done (  4.5 sec)
CPCM gradient                     ... done (  0.6 sec)
SMD gradient                      ... done (  0.0 sec)
Dispersion correction             ... done (  0.0 sec)

-------------------
DISPERSION GRADIENT
-------------------

   1   C   :   -0.000084326   -0.000006537   -0.000000000
   2   C   :   -0.000060513   -0.000059069    0.000000004
   3   C   :    0.000004715   -0.000066103    0.000000000
   4   C   :    0.000043317   -0.000012948    0.000000001
   5   C   :    0.000016067    0.000042197    0.000000001
   6   C   :   -0.000050281    0.000050500   -0.000000003
   7   O   :    0.000026438    0.000089143    0.000000002
   8   Cl  :    0.000166185   -0.000032985   -0.000000004
   9   H   :   -0.000040669    0.000000622    0.000000001
  10   H   :   -0.000026327   -0.000031663    0.000000000
  11   H   :    0.000010547   -0.000038501   -0.000000001
  12   H   :   -0.000023504    0.000034074   -0.000000002
  13   H   :    0.000018353    0.000031271    0.000000001

Difference to translation invariance:
           :    0.0000000000    0.0000000000    0.0000000000

Difference to rotation invariance:
           :   -0.0000000000    0.0000000000   -0.0000000000

Norm of the Dispersion gradient    ...    0.0002705185
RMS gradient                       ...    0.0000433176
MAX gradient                       ...    0.0001661847
gCP correction                   ... done

------------------
CARTESIAN GRADIENT
------------------

   1   C   :    0.001548258   -0.000734650   -0.000015979
   2   C   :    0.001239163    0.003748665    0.000024742
   3   C   :   -0.001326862    0.001132765   -0.000004029
   4   C   :   -0.000713557   -0.003663581    0.000004058
   5   C   :    0.004239655    0.001444602    0.000013003
   6   C   :    0.000902506   -0.001968645   -0.000017972
   7   O   :   -0.006348497   -0.008041895   -0.000001756
   8   Cl  :   -0.006926667    0.001737773   -0.000001976
   9   H   :    0.004672629   -0.000738170    0.000008556
  10   H   :    0.002572894    0.004253064   -0.000008561
  11   H   :   -0.001661498    0.004709134   -0.000003867
  12   H   :    0.000801332   -0.005153454    0.000003648
  13   H   :    0.001000642    0.003274392    0.000000131

Difference to translation invariance:
           :    0.0000000000   -0.0000000000   -0.0000000000

Difference to rotation invariance:
           :    0.0000001598    0.0000001196   -0.0004055461

Norm of the Cartesian gradient     ...    0.0180879285
RMS gradient                       ...    0.0028963866
MAX gradient                       ...    0.0080418954

-------
TIMINGS
-------

Total SCF gradient time     ....        7.131 sec

Densities                   ....       0.001 sec  (  0.0%)
One electron gradient       ....       0.179 sec  (  2.5%)
RI-J Coulomb gradient       ....       1.303 sec  ( 18.3%)
XC gradient                 ....       4.468 sec  ( 62.7%)
CPCM gradient               ....       0.625 sec  (  8.8%)
   A-Matrix (El+Nuc)        ....       0.045 sec  (  0.6%)
   Potential                ....       0.580 sec  (  8.1%)
SMD gradient                ....       0.011 sec  (  0.2%)

Maximum memory used throughout the entire SCFGRAD-calculation: 33.3 MB

------------------------------------------------------------------------------
                              ORCA PROPERTY CALCULATIONS
------------------------------------------------------------------------------

GBWName                                 ... xtb_opt.gbw
Number of atoms                         ...     13
Number of basis functions               ...    190
Max core memory                         ...   1024 MB

Electric properties:
Dipole moment                           ... YES
Quadrupole moment                       ...  NO
Static polarizability (Dipole/Dipole)   ...  NO
Static polarizability (Dipole/Quad.)    ...  NO
Static polarizability (Quad./Quad.)     ...  NO
Static polarizability (Velocity)        ...  NO

Atomic electric properties:
Dipole moment                           ...  NO
Quadrupole moment                       ...  NO
Static polarizability                   ...  NO

Choice of electric origin               ... Center of mass
Position of electric origin             ...    -0.000033    -0.000017    -0.000000

General magnetic properties:
Magnetizability                         ...  NO

EPR properties:
g-Tensor (aka g-matrix)                 ...  NO
Zero-Field splitting spin-orbit         ...  NO
Zero-field splitting spin-spin          ...  NO
Hyperfine couplings                     ...  NO (   0 nuclei)
Quadrupole couplings                    ...  NO (   0 nuclei)
Contact density                         ...  NO (   0 nuclei)

NMR properties:
Chemical shifts                         ...  NO (   0 nuclei)
Spin-rotation constants                 ...  NO (   0 nuclei)
Spin-spin couplings                     ...  NO (   0 nuclei,    0 pairs)

Choice of magnetic origin               ... GIAO
Position of magnetic origin             ...     0.000000     0.000000     0.000000

Properties with geometric perturbations:
SCF Hessian                             ...  NO
IR spectrum                             ...  NO
VCD spectrum                            ...  NO
X-ray spectroscopy properties:
SCF XES/XAS/RIXS spectra                ...  NO


-------------
DIPOLE MOMENT
-------------

Method             : SCF
Type of density    : Electron Density
Multiplicity       :   1
Irrep              :   0
Energy             :  -766.9894046937806706 Eh
Relativity type    : 
Basis              : AO
                                X                 Y                 Z
Electronic contribution:      8.745861073      -0.157421557      -0.000099988
Nuclear contribution   :    -10.210667121       0.812722145       0.000066200
                        -----------------------------------------
Total Dipole Moment    :     -1.464806049       0.655300587      -0.000033789
                        -----------------------------------------
Magnitude (a.u.)       :      1.604704216
Magnitude (Debye)      :      4.078833967



--------------------
Rotational spectrum 
--------------------
 
Rotational constants in cm-1:             0.099444             0.051664             0.034000 
Rotational constants in MHz :          2981.260008          1548.836633          1019.290556 

Dipole components along the rotational axes: 
x,y,z [a.u.] :     1.457393     0.671627    -0.000058 
x,y,z [Debye]:     3.704397     1.707140    -0.000148 

 

Dipole moment calculation done in   0.0 sec 

Maximum memory used throughout the entire PROP-calculation: 11.7 MB

--------------------------------
SUGGESTED CITATIONS FOR THIS RUN
--------------------------------

Below you find a list of papers that are relevant to this ORCA run
We neither can nor want to force you to cite these papers, but we appreciate if you do
You receive ORCA, which is the product of decades of hard work by many enthusiastic individuals, for free
The only thing we kindly ask in return is that you cite our papers,
We deeply appreciate it, if you show your appreciation for ORCA by not just citing the generic ORCA reference.

Please note that relegating all ORCA citations to the supporting information does *not* help us.
SI sections are not indexed - citations you put there will not count into any citation statistics
But we need these citations in order to attract the funding resources that allow us to do what we are doing

Therefore, if you are a happy ORCA user, please consider citing a few of the papers listed below in the main body of your paper

In addition to the list printed below, the program has created the file xtb_opt.bibtex that contains the list in bibtex format
You can import this file easily into all common literature databanks and citation aid programs


List of essential papers. We consider these as the minimum necessary citations

  1. Neese,F.
     Software update: the ORCA program system, version 5.0
     WIRES Comput. Molec. Sci., 2022 12(1)e1606
     doi.org/10.1002/wcms.1606
  2. Grimme,S.; Hansen,A.; Ehlert,S.; Mewes,J.
     r2SCAN-3c: A 'Swiss army knife' composite electronic-structure method
     J. Chem. Phys., 2021 154 064103
     doi.org/10.1063/5.0040021

List of papers to cite with high priority. The work reported in these papers was absolutely
necessary for this run to complete.
Our perspective: the developers of density functionals and basis sets usually get cited in chemistry papers
Good! But without the algorithms to do something with them, the functionals or basis sets would not do anything.
Hence, in our opinion, the algorithm design and method developments papers are equally worthy of getting cited

  1. Neese,F.
     An improvement of the resolution of the identity approximation for the formation of the Coulomb matrix
     J. Comp. Chem., 2003 24(14)1740-1747
     doi.org/10.1002/jcc.10318
  2. Garcia-Rates,M.; Neese,F.
     Effect of the Solute Cavity on the Solvation Energy and its Derivatives within the Framework of the Gaussian Charge Scheme
     J. Comput. Chem., 2020 41 922-939
     doi.org/10.1002/jcc.26139
  3. Neese,F.
     The SHARK Integral Generation and Digestion System
     J. Comp. Chem., 2022  1-16
     doi.org/10.1002/jcc.26942
  4. Lehtola,S.; Steigemann,C.; Oliveira,M.; Marques,M.
     Recent developments in Libxc - A comprehensive library of functionals for density functional theory
     Software X, 2018 7 
     doi.org/10.1016/j.softx.2017.11.002
  5. Caldeweyher,E.; Bannwarth,C.; Grimme,S.
     Extension of the D3 dispersion coefficient model
     J. Chem. Phys., 2017 147 034112-XXXX
     doi.org/10.1063/1.4993215
  6. Caldeweyher,E.; Ehlert,S.; Hansen,A.; Neugebauer,H.; Spicher,S.; Bannwarth,C.; Grimme,S.
     A generally applicable atomic-charge dependent London dispersion correction
     J. Chem. Phys., 2019 150 154122-XXXX
     doi.org/10.1063/1.5090222
  7. Caldeweyher,E.; Mewes,J.; Ehlert,S.; Grimme,S.
     Extension and evaluation of the D4 London-dispersion model for periodic systems
     Phys. Chem. Chem. Phys., 2020 22(16)8499-8512
     doi.org/10.1039/D0CP00502A

List of suggested additional citations. These are papers that are important in the 'surrounding' of 
of this run, or papers that preceded the highly important papers. If you like your results we are grateful for a citation.

  1. Neese,F.
     The ORCA program system
     WIRES Comput. Molec. Sci., 2012 2(1)73-78
     doi.org/10.1002/wcms.81
  2. Neese,F.
     Software update: the ORCA program system, version 4.0
     WIRES Comput. Molec. Sci., 2018 8(1)1-6
     doi.org/10.1002/wcms.1327
  3. Neese,F.; Wennmohs,F.; Becker,U.; Riplinger,C.
     The ORCA quantum chemistry program package
     J. Chem. Phys., 2020 152 Art. No. L224108
     doi.org/10.1063/5.0004608

List of optional additional citations

  1. Neese,F.
     Approximate second-order SCF convergence for spin unrestricted wavefunctions
     Chem. Phys. Lett., 2000 325(1-3)93-98
     doi.org/10.1016/s0009-2614(00)00662-x

Timings for individual modules:

Sum of individual times          ...       14.752 sec (=   0.246 min)
Startup calculation              ...        1.090 sec (=   0.018 min)   7.4 %
SCF iterations                   ...        6.218 sec (=   0.104 min)  42.2 %
Property calculations            ...        0.101 sec (=   0.002 min)   0.7 %
SCF Gradient evaluation          ...        7.343 sec (=   0.122 min)  49.8 %
                             ****ORCA TERMINATED NORMALLY****
TOTAL RUN TIME: 0 days 0 hours 0 minutes 15 seconds 573 msec
  ------------------------------------------------------------------------
          * successful ORCA run, taking over control again...

         :::::::::::::::::::::::::::::::::::::::::::::::::::::
         ::                  ORCA SUMMARY                   ::
         :::::::::::::::::::::::::::::::::::::::::::::::::::::
         :: total energy            -766.988690490400 Eh    ::
         :: gradient norm              0.018087928539 Eh/a0 ::
         :: HOMO-LUMO gap              0.000000000000 eV    ::
         :::::::::::::::::::::::::::::::::::::::::::::::::::::

      ----------------------------------------------------------- 
     |                       L-ANC optimizer                     |
      ----------------------------------------------------------- 
          low memory version by Sebastian Ehlert

          ...................................................
          :                      SETUP                      :
          :.................................................:
          :   energy convergence        0.5000000E-05 Eh    :
          :   grad. convergence         0.1000000E-02 Eh/a0 :
          :   optimization log               true           :
          :   writing optlog all                1     steps :
          :   Hessian reset                     8     steps :
          :   maximium step len.        1.0000000     a0    :
          :   LBFGS images                      8           :
          ...................................................
 * calculating model hessian...
Using Lindh-Hessian (1995)
 Shifting diagonal of input Hessian by   1.000000000000000E-002
 Lowest  eigenvalues of input Hessian
    0.000000    0.000000    0.000000    0.000000    0.000000    0.000000
    0.018412    0.022832    0.030207    0.033256    0.047260    0.053406
    0.063972    0.080818    0.092095    0.105194    0.111254    0.113194
 Highest eigenvalues
    1.492539    1.644318    1.770894    1.903360    2.035332    2.117983
 

........................................................................
.............................. CYCLE    1 ..............................
........................................................................
                         * ORCA takes the control...
  ------------------------------------------------------------------------

                                 *****************
                                 * O   R   C   A *
                                 *****************

                                            #,                                       
                                            ###                                      
                                            ####                                     
                                            #####                                    
                                            ######                                   
                                           ########,                                 
                                     ,,################,,,,,                         
                               ,,#################################,,                 
                          ,,##########################################,,             
                       ,#########################################, ''#####,          
                    ,#############################################,,   '####,        
                  ,##################################################,,,,####,       
                ,###########''''           ''''###############################       
              ,#####''   ,,,,##########,,,,          '''####'''          '####       
            ,##' ,,,,###########################,,,                        '##       
           ' ,,###''''                  '''############,,,                           
         ,,##''                                '''############,,,,        ,,,,,,###''
      ,#''                                            '''#######################'''  
     '                                                          ''''####''''         
             ,#######,   #######,   ,#######,      ##                                
            ,#'     '#,  ##    ##  ,#'     '#,    #''#        ,####,   ,####,        
            ##       ##  ##   ,#'  ##            #'  '#       #'       #'  '#        
            ##       ##  #######   ##           ,######,      #####,   #    #        
            '#,     ,#'  ##    ##  '#,     ,#' ,#      #,     #,   #   #,  ,#        
             '#######'   ##     ##  '#######'  #'      '#     '####' # '####'        



                #########################################################
                #                        -***-                          #
                #          Department of theory and spectroscopy        #
                #                                                       #
                #                      Frank Neese                      #
                #                                                       #
                #     Directorship, Architecture, Infrastructure        #
                #                    SHARK, DRIVERS                     #
                #        Core code/Algorithms in most modules           #
                #                                                       #
                #        Max Planck Institute fuer Kohlenforschung      #
                #                Kaiser Wilhelm Platz 1                 #
                #                 D-45470 Muelheim/Ruhr                 #
                #                      Germany                          #
                #                                                       #
                #                  All rights reserved                  #
                #                        -***-                          #
                #########################################################


                         Program Version 6.0.0  -   RELEASE  -


 With contributions from (in alphabetic order):
   Daniel Aravena         : Magnetic Suceptibility
   Michael Atanasov       : Ab Initio Ligand Field Theory (pilot matlab implementation)
   Alexander A. Auer      : GIAO ZORA, VPT2 properties, NMR spectrum
   Ute Becker             : All parallelization in ORCA, NUMFREQ, NUMCALC
   Giovanni Bistoni       : ED, misc. LED, open-shell LED, HFLD
   Martin Brehm           : Molecular dynamics
   Dmytro Bykov           : pre 5.0 version of the SCF Hessian
   Marcos Casanova-Páez   : Triplet and SCS-CIS(D). UHF-(DLPNO)-IP/EA/STEOM-CCSD. UHF-CVS-IP/STEOM-CCSD
   Vijay G. Chilkuri      : MRCI spin determinant printing, contributions to CSF-ICE
   Pauline Colinet        : FMM embedding
   Dipayan Datta          : RHF DLPNO-CCSD density
   Achintya Kumar Dutta   : EOM-CC, STEOM-CC
   Nicolas Foglia         : Exact transition moments, OPA infrastructure, MCD improvements
   Dmitry Ganyushin       : Spin-Orbit,Spin-Spin,Magnetic field MRCI
   Miquel Garcia          : C-PCM and meta-GGA Hessian, CCSD/C-PCM, Gaussian charge scheme
   Tiago L. C. Gouveia    : GS-ROHF, GS-ROCIS
   Yang Guo               : DLPNO-NEVPT2, F12-NEVPT2, CIM, IAO-localization
   Andreas Hansen         : Spin unrestricted coupled pair/coupled cluster methods
   Ingolf Harden          : AUTO-CI MPn and infrastructure 
   Benjamin Helmich-Paris : MC-RPA, TRAH-(SCF,CASSCF), AVAS, COSX integrals, SCF dyn. polar.
   Lee Huntington         : MR-EOM, pCC
   Robert Izsak           : Overlap fitted RIJCOSX, COSX-SCS-MP3, EOM
   Riya Kayal             : Wick's Theorem for AUTO-CI, AUTO-CI UHF-CCSDT
   Emily Kempfer          : AUTO-CI, RHF CISDT and CCSDT
   Christian Kollmar      : KDIIS, OOCD, Brueckner-CCSD(T), CCSD density, CASPT2, CASPT2-K, improved NEVPT2
   Axel Koslowski         : Symmetry handling
   Simone Kossmann        : Meta GGA functionals, TD-DFT gradient, OOMP2, (MP2 Hessian; deprecated post 5.0)
   Lucas Lang             : DCDCAS
   Marvin Lechner         : AUTO-CI (C++ implementation), FIC-MRCC
   Spencer Leger          : CASSCF response
   Dagmar Lenk            : GEPOL surface, SMD, ORCA-2-JSON
   Dimitrios Liakos       : Extrapolation schemes; Compound Job, initial MDCI parallelization
   Dimitrios Manganas     : Further ROCIS development; embedding schemes. LFT, Crystal Embedding
   Dimitrios Pantazis     : SARC Basis sets
   Anastasios Papadopoulos: AUTO-CI, single reference methods and gradients
   Taras Petrenko         : pre 6.0 DFT Hessian and TD-DFT gradient, (ASA, deprecated), ECA, 1-Electron XAS/XES, NRVS
   Peter Pinski           : DLPNO-MP2, DLPNO-MP2 Gradient
   Christoph Reimann      : Effective Core Potentials
   Marius Retegan         : Local ZFS, SOC
   Christoph Riplinger    : Optimizer, TS searches, QM/MM, DLPNO-CCSD(T), (RO)-DLPNO pert. Triples
   Michael Roemelt        : Original ROCIS implementation
   Masaaki Saitow         : Open-shell DLPNO-CCSD energy and density
   Barbara Sandhoefer     : DKH picture change effects
   Kantharuban Sivalingam : CASSCF convergence/infrastructure, NEVPT2 and variants, FIC-MRCI
   Bernardo de Souza      : ESD, SOC TD-DFT
   Georgi Stoychev        : AutoAux, RI-MP2 NMR, DLPNO-MP2 response, X2C
   Van Anh Tran           : RI-MP2 g-tensors
   Willem Van den Heuvel  : Paramagnetic NMR
   Zikuan Wang            : NOTCH, Electric field optimization 
   Frank Wennmohs         : Technical directorship and infrastructure
   Hang Xu                : AUTO-CI-Response properties 


 We gratefully acknowledge several colleagues who have allowed us to
 interface, adapt or use parts of their codes:
   Stefan Grimme, W. Hujo, H. Kruse, P. Pracht,  : VdW corrections, initial TS optimization,
                  C. Bannwarth, S. Ehlert,         DFT functionals, gCP, sTDA/sTD-DF
                  L. Wittmann, M. Mueller
   Ed Valeev, F. Pavosevic, A. Kumar             : LibInt (2-el integral package), F12 methods
   Garnet Chan, S. Sharma, J. Yang, R. Olivares  : DMRG
   Ulf Ekstrom                                   : XCFun DFT Library
   Mihaly Kallay                                 : mrcc  (arbitrary order and MRCC methods)
   Frank Weinhold                                : gennbo (NPA and NBO analysis)
   Simon Mueller                                 : openCOSMO-RS
   Christopher J. Cramer and Donald G. Truhlar   : smd solvation model
   Lars Goerigk                                  : TD-DFT with DH, B97 family of functionals
   V. Asgeirsson, H. Jonsson                     : NEB implementation
   FAccTs GmbH                                   : IRC, NEB, NEB-TS, DLPNO-Multilevel, CI-OPT
                                                   MM, QMMM, 2- and 3-layer-ONIOM, Crystal-QMMM,
                                                   LR-CPCM, SF, NACMEs, symmetry and pop. for TD-DFT,
                                                   nearIR, NL-DFT gradient (VV10), updates on ESD,
                                                   ML-optimized integration grids, MBIS, APM,
                                                   GOAT, DOCKER, SOLVATOR, interface openCOSMO-RS
   S Lehtola, MJT Oliveira, MAL Marques          : LibXC Library
   Liviu Ungur et al                             : ANISO software


 Your calculation uses the libint2 library for the computation of 2-el integrals
 For citations please refer to: http://libint.valeyev.net

 Your ORCA version has been built with support for libXC version: 6.2.2
 For citations please refer to: https://libxc.gitlab.io

 This ORCA versions uses:
   CBLAS   interface :  Fast vector & matrix operations
   LAPACKE interface :  Fast linear algebra routines
   SCALAPACK package :  Parallel linear algebra routines
   Shared memory     :  Shared parallel matrices
   BLAS/LAPACK       :  OpenBLAS 0.3.27  USE64BITINT DYNAMIC_ARCH NO_AFFINITY SkylakeX SINGLE_THREADED
        Core in use  :  SkylakeX
   Copyright (c) 2011-2014, The OpenBLAS Project




***************************************
The coordinates will be read from file: xtb_opt.xyz
***************************************


Your calculation utilizes the geometrical counterpoise correction gCP
Please cite in your paper:
H.Kruse, S. Grimme J.Chem.Phys., 136, (2012), 154101 
   

Your calculation utilizes the atom-pairwise dispersion correction
based on EEQ partial charges (D4)


Your calculation utilizes the SMD solvation module
Please cite in your paper:
A.V. Marenich, C.J. Cramer, D.G. Truhlar J. Phys. Chem. B, 113, (2009), 6378 

================================================================================

----- Orbital basis set information -----
Your calculation utilizes the basis: def2-mTZVPP
   Stefan Grimme, Andreas Hansen, Sebastian Ehlert, and Jan-Michael Mewes 
   J. Chem. Phys. 154, 064103 (2021). DOI: 10.1063/5.0040021

----- AuxJ basis set information -----
Your calculation utilizes the auxiliary basis: def2/J
   F. Weigend, Phys. Chem. Chem. Phys. 8, 1057 (2006).

================================================================================
                                        WARNINGS
                       Please study these warnings very carefully!
================================================================================

WARNING: Old DensityContainer found on disk!
         Will remove this file - 
         If you want to keep old densities, please start your calculation with a different basename. 

Using LibXC functional ID 497 : Re-regularized SCAN exchange by Furness et al
[ 1]  J. W. Furness, A. D. Kaplan, J. Ning, J. P. Perdew, and J. Sun.,  J. Phys. Chem. Lett. 11, 8208-8215 (2020)
[ 2]  J. W. Furness, A. D. Kaplan, J. Ning, J. P. Perdew, and J. Sun.,  J. Phys. Chem. Lett. 11, 9248-9248 (2020)
Using LibXC functional ID 498 : Re-regularized SCAN correlation by Furness et al
[ 1]  J. W. Furness, A. D. Kaplan, J. Ning, J. P. Perdew, and J. Sun.,  J. Phys. Chem. Lett. 11, 8208-8215 (2020)
[ 2]  J. W. Furness, A. D. Kaplan, J. Ning, J. P. Perdew, and J. Sun.,  J. Phys. Chem. Lett. 11, 9248-9248 (2020)
Using LibXC functional ID 497 : Re-regularized SCAN exchange by Furness et al
[ 1]  J. W. Furness, A. D. Kaplan, J. Ning, J. P. Perdew, and J. Sun.,  J. Phys. Chem. Lett. 11, 8208-8215 (2020)
[ 2]  J. W. Furness, A. D. Kaplan, J. Ning, J. P. Perdew, and J. Sun.,  J. Phys. Chem. Lett. 11, 9248-9248 (2020)
Using LibXC functional ID 498 : Re-regularized SCAN correlation by Furness et al
[ 1]  J. W. Furness, A. D. Kaplan, J. Ning, J. P. Perdew, and J. Sun.,  J. Phys. Chem. Lett. 11, 8208-8215 (2020)
[ 2]  J. W. Furness, A. D. Kaplan, J. Ning, J. P. Perdew, and J. Sun.,  J. Phys. Chem. Lett. 11, 9248-9248 (2020)

================================================================================
                                       INPUT FILE
================================================================================
NAME = xtb_opt.inp
|  1> ! r2scan-3c def2/J RI DEFGRID2 scfconv7 ENGRAD tightSCF miniprint
|  2> %cpcm
|  3>     smd true
|  4>     smdsolvent "water"
|  5> end
|  6> * xyzfile 0 1 xtb_opt.xyz
|  7> 
|  8>                          ****END OF INPUT****
================================================================================

                     *******************************
                     * Energy+Gradient Calculation *
                     *******************************

---------------------------------
CARTESIAN COORDINATES (ANGSTROEM)
---------------------------------
  C     -2.417074   -0.101529    0.000034
  C     -1.831586   -1.362801    0.000016
  C     -0.446123   -1.478705   -0.000008
  C      0.340754   -0.336117   -0.000009
  C     -0.235698    0.939567   -0.000001
  C     -1.626955    1.040239   -0.000003
  O      0.579722    2.026989    0.000031
  Cl     2.083916   -0.482283   -0.000038
  H     -3.495957   -0.001124    0.000039
  H     -2.444356   -2.255868    0.000035
  H      0.029636   -2.451700   -0.000048
  H     -2.082334    2.025259   -0.000039
  H      0.047892    2.836147    0.000076

----------------------------
CARTESIAN COORDINATES (A.U.)
----------------------------
  NO LB      ZA    FRAG     MASS         X           Y           Z
   0 C     6.0000    0    12.011   -4.567607   -0.191863    0.000065
   1 C     6.0000    0    12.011   -3.461196   -2.575322    0.000030
   2 C     6.0000    0    12.011   -0.843050   -2.794348   -0.000014
   3 C     6.0000    0    12.011    0.643932   -0.635169   -0.000017
   4 C     6.0000    0    12.011   -0.445405    1.775524   -0.000002
   5 C     6.0000    0    12.011   -3.074500    1.965767   -0.000006
   6 O     8.0000    0    15.999    1.095516    3.830454    0.000058
   7 Cl   17.0000    0    35.453    3.938030   -0.911383   -0.000072
   8 H     1.0000    0     1.008   -6.606401   -0.002123    0.000074
   9 H     1.0000    0     1.008   -4.619164   -4.262973    0.000066
  10 H     1.0000    0     1.008    0.056004   -4.633041   -0.000090
  11 H     1.0000    0     1.008   -3.935041    3.827185   -0.000074
  12 H     1.0000    0     1.008    0.090503    5.359541    0.000143

------------------------------------------------------------------------------
                   ___                                                        
                  /   \      - P O W E R E D   B Y -                         
                 /     \                                                     
                 |  |  |   _    _      __       _____    __    __             
                 |  |  |  | |  | |    /  \     |  _  \  |  |  /  |          
                  \  \/   | |  | |   /    \    | | | |  |  | /  /          
                 / \  \   | |__| |  /  /\  \   | |_| |  |  |/  /          
                |  |  |   |  __  | /  /__\  \  |    /   |      \           
                |  |  |   | |  | | |   __   |  |    \   |  |\   \          
                \     /   | |  | | |  |  |  |  | |\  \  |  | \   \       
                 \___/    |_|  |_| |__|  |__|  |_| \__\ |__|  \__/        
                                                                              
                      - O R C A' S   B I G   F R I E N D -                    
                                      &                                       
                       - I N T E G R A L  F E E D E R -                       
                                                                              
 v1 FN, 2020, v2 2021, v3 2022-2024                                           
------------------------------------------------------------------------------


----------------------
SHARK INTEGRAL PACKAGE
----------------------

Number of atoms                             ...     13
Number of basis functions                   ...    190
Number of shells                            ...     90
Maximum angular momentum                    ...      2
Integral batch strategy                     ... SHARK/LIBINT Hybrid
RI-J (if used) integral strategy            ... SPLIT-RIJ (Revised 2003 algorithm where possible)
Printlevel                                  ...      1
Contraction scheme used                     ... SEGMENTED contraction
Prescreening option                         ... SCHWARTZ
   Thresh                                   ... 3.000e-11
   Tcut                                     ... 1.000e-12
   Tpresel                                  ... 1.000e-12 
Coulomb Range Separation                    ... NOT USED
Exchange Range Separation                   ... NOT USED
Multipole approximations                    ... NOT USED
Finite Nucleus Model                        ... NOT USED
CABS basis                                  ... NOT available
Auxiliary Coulomb fitting basis             ... AVAILABLE
   # of basis functions in Aux-J            ...    449
   # of shells in Aux-J                     ...    147
   Maximum angular momentum in Aux-J        ...      4
Auxiliary J/K fitting basis                 ... NOT available
Auxiliary Correlation fitting basis         ... NOT available
Auxiliary 'external' fitting basis          ... NOT available

Checking pre-screening integrals            ... done (  0.0 sec) Dimension = 90
Check shell pair data                       ... done (  0.0 sec)
Shell pair information
Shell pair cut-off parameter TPreSel        ...   1.0e-12
Total number of shell pairs                 ...      4095
Shell pairs after pre-screening             ...      3749
Total number of primitive shell pairs       ...     15962
Primitive shell pairs kept                  ...     10355
          la=0 lb=0:   1111 shell pairs
          la=1 lb=0:   1384 shell pairs
          la=1 lb=1:    441 shell pairs
          la=2 lb=0:    468 shell pairs
          la=2 lb=1:    290 shell pairs
          la=2 lb=2:     55 shell pairs

Calculating one electron integrals          ... done (  0.0 sec)
Calculating RI/J V-Matrix + Cholesky decomp.... done (  0.1 sec)
Calculating Nuclear repulsion               ... done (  0.0 sec) ENN=    405.392197256665 Eh

Diagonalization of the overlap matrix:
Smallest eigenvalue                        ... 2.867e-05
Time for diagonalization                   ...    0.004 sec
Threshold for overlap eigenvalues          ... 1.000e-07
Number of eigenvalues below threshold      ... 0
Time for construction of square roots      ...    0.013 sec
Total time needed                          ...    0.024 sec

-------------------
DFT GRID GENERATION
-------------------

General Integration Accuracy     IntAcc      ... 4.388
Radial Grid Type                 RadialGrid  ... OptM3 with GC (2021)
Angular Grid (max. ang.)         AngularGrid ... 4 (Lebedev-302)
Angular grid pruning method      GridPruning ... 4 (adaptive)
Weight generation scheme         WeightScheme... mBecke (2022)
Basis function cutoff            BFCut       ... 1.0000e-11
Integration weight cutoff        WCut        ... 1.0000e-14
Partially contracted basis set               ... off
Rotationally invariant grid construction     ... off
Angular grids for H and He will be reduced by one unit
Diffuse basis detected: some atoms will have their outermost
                        angular grid increased by 1.

Total number of grid points                  ...    65897
Total number of batches                      ...     1038
Average number of points per batch           ...       63
Average number of grid points per atom       ...     5069
Initializing property integral containers    ... done (  0.0 sec)

SHARK setup successfully completed in   1.0 seconds

Maximum memory used throughout the entire STARTUP-calculation: 30.9 MB
Occupation numbers will be reassigned to an Aufbau configuration
             **** ENERGY FILE WAS UPDATED (xtb_opt.en.tmp) ****
Finished Guess after   0.5 sec
Maximum memory used throughout the entire GUESS-calculation: 13.2 MB
--------------------
CPCM SOLVATION MODEL
--------------------
CPCM parameters:
  Epsilon                                         ...      78.3550
  Refrac                                          ...       1.3328
  Rsolv                                           ...       1.3000
  Surface type                                    ... GAUSSIAN VDW
  Discretization scheme                           ... Constant charge density
    Threshold for H atoms                         ...       5.0000 (charges/Ang^2)
    Threshold for non-H atoms                     ...       5.0000 (charges/Ang^2)
  Epsilon function type                           ...         CPCM
Solvent:                                          ... WATER
SMD-CDS solvent descriptors:
  Soln                                            ...       1.3328
  Soln25                                          ...       1.3323
  Sola                                            ...       0.0000
  Solb                                            ...       0.0000
  Solg                                            ...       0.0000
  Solc                                            ...       0.0000
  Solh                                            ...       0.0000
Radii:
  Scheme                                          ... Element-dependent radii
  Radius for C  used is    3.4960 Bohr (=   1.8500 Ang.)
  Radius for O  used is    2.8724 Bohr (=   1.5200 Ang.)
  Radius for Cl used is    4.4975 Bohr (=   2.3800 Ang.)
  Radius for H  used is    2.2677 Bohr (=   1.2000 Ang.)
Calculating surface                               ...        done! (  0.0s)
Cavity surface points                             ...         1114
Cavity Volume                                     ...     931.2294
Cavity Surface-area                               ...     546.3916
Calculating surface distance matrix               ...        done! (  0.0s)
Performing Cholesky decomposition & store         ...        done! (  0.1s)
Overall time for CPCM initialization              ...                 0.1s

----------------------------------------D-I-I-S--------------------------------------------
Iteration    Energy (Eh)           Delta-E    RMSDP     MaxDP     DIISErr   Damp  Time(sec)
-------------------------------------------------------------------------------------------
               ***  Starting incremental Fock matrix formation  ***
                              *** Initializing SOSCF ***
---------------------------------------S-O-S-C-F--------------------------------------
Iteration    Energy (Eh)           Delta-E    RMSDP     MaxDP     MaxGrad    Time(sec)
--------------------------------------------------------------------------------------
    1    -766.9952266380029187     0.00e+00  2.50e-04  6.21e-03  3.12e-04     3.3
               *** Restarting incremental Fock matrix formation ***
    2    -766.9953249198450749    -9.83e-05  8.76e-05  1.33e-03  4.57e-04     2.6
    3    -766.9953213040440687     3.62e-06  4.34e-05  8.70e-04  5.41e-04     2.8
    4    -766.9953342977720467    -1.30e-05  2.51e-05  7.56e-04  1.31e-04     2.5
    5    -766.9953338418921476     4.56e-07  1.27e-05  3.37e-04  1.52e-04     2.8
    6    -766.9953347692559191    -9.27e-07  4.38e-06  1.36e-04  1.99e-05     2.7
                  *** Gradient check signals convergence ***

               *****************************************************
               *                     SUCCESS                       *
               *           SCF CONVERGED AFTER   6 CYCLES          *
               *****************************************************


SMD CDS free energy correction energy :                 3.39140     Kcal/mol
Total Energy after SMD CDS correction =              -766.989930237 Eh
             **** ENERGY FILE WAS UPDATED (xtb_opt.en.tmp) ****

----------------
TOTAL SCF ENERGY
----------------

Total Energy       :       -766.98993023659477 Eh          -20870.85706 eV

Components:
Nuclear Repulsion  :        405.39219725666464 Eh           11031.28251 eV
Electronic Energy  :      -1172.36814718111100 Eh          -31901.75914 eV
One Electron Energy:      -1855.72739835405537 Eh          -50496.90972 eV
Two Electron Energy:        683.35925117294425 Eh           18595.15058 eV
CPCM Dielectric    :         -0.01938484480937 Eh              -0.52749 eV
SMD CDS (Gcds)     :          0.00540453266118 Eh               0.14706 eV

Virial components:
Potential Energy   :      -1531.60134118362976 Eh          -41676.99131 eV
Kinetic Energy     :        764.61141094703510 Eh           20806.13426 eV
Virial Ratio       :          2.00311075567995

DFT components:
N(Alpha)           :       33.000006209080 electrons
N(Beta)            :       33.000006209080 electrons
N(Total)           :       66.000012418160 electrons
E(X)               :      -68.854413045466 Eh       
E(C)               :       -2.265206869083 Eh       
E(XC)              :      -71.119619914550 Eh       

CPCM Solvation Model Properties:
Surface-charge          :         -0.02939961282300
Corrected charge        :         -0.00000000000000
Outlying charge corr.   :          0.00006631915932 Eh               0.00180 eV
Free-energy (cav+disp)  :          0.00540453266118 Eh               0.14706 eV

---------------
SCF CONVERGENCE
---------------

  Last Energy change         ...    9.2736e-07  Tolerance :   1.0000e-07
  Last MAX-Density change    ...    1.3604e-04  Tolerance :   1.0000e-07
  Last RMS-Density change    ...    4.3820e-06  Tolerance :   5.0000e-09
  Last DIIS Error            ...    3.0837e-03  Tolerance :   1.0000e-07
  Last Orbital Gradient      ...    1.9919e-05  Tolerance :   1.0000e-04
  Last Orbital Rotation      ...    9.9726e-05  Tolerance :   1.0000e-04


----------------
ORBITAL ENERGIES
----------------

  NO   OCC          E(Eh)            E(eV) 
   0   2.0000    -101.223706     -2754.4371 
   1   2.0000     -18.991238      -516.7779 
   2   2.0000     -10.112540      -275.1762 
   3   2.0000     -10.099426      -274.8194 
   4   2.0000     -10.048385      -273.4305 
   5   2.0000     -10.042618      -273.2735 
   6   2.0000     -10.042133      -273.2603 
   7   2.0000     -10.037760      -273.1413 
   8   2.0000      -9.379309      -255.2240 
   9   2.0000      -7.125539      -193.8958 
  10   2.0000      -7.115686      -193.6277 
  11   2.0000      -7.115061      -193.6106 
  12   2.0000      -1.035970       -28.1902 
  13   2.0000      -0.856428       -23.3046 
  14   2.0000      -0.804769       -21.8989 
  15   2.0000      -0.720090       -19.5946 
  16   2.0000      -0.703001       -19.1296 
  17   2.0000      -0.604351       -16.4452 
  18   2.0000      -0.570060       -15.5121 
  19   2.0000      -0.520843       -14.1729 
  20   2.0000      -0.469761       -12.7829 
  21   2.0000      -0.451155       -12.2766 
  22   2.0000      -0.417733       -11.3671 
  23   2.0000      -0.402118       -10.9422 
  24   2.0000      -0.401558       -10.9269 
  25   2.0000      -0.371910       -10.1202 
  26   2.0000      -0.341005        -9.2792 
  27   2.0000      -0.334208        -9.0943 
  28   2.0000      -0.321328        -8.7438 
  29   2.0000      -0.311903        -8.4873 
  30   2.0000      -0.288566        -7.8523 
  31   2.0000      -0.237721        -6.4687 
  32   2.0000      -0.213412        -5.8072 
  33   0.0000      -0.043846        -1.1931 
  34   0.0000      -0.027696        -0.7537 
  35   0.0000       0.003522         0.0958 
  36   0.0000       0.079810         2.1718 
  37   0.0000       0.112876         3.0715 
  38   0.0000       0.115843         3.1522 
  39   0.0000       0.116356         3.1662 
  40   0.0000       0.136726         3.7205 
  41   0.0000       0.152419         4.1475 
  42   0.0000       0.164489         4.4760 
  43   0.0000       0.184980         5.0336 
*Only the first 10 virtual orbitals were printed.
Total SCF time: 0 days 0 hours 0 min 17 sec 
Finished LeanSCF after  17.3 sec

Maximum memory used throughout the entire LEANSCF-calculation: 20.9 MB


-------------------------------------------------------------------------------
                          DFT DISPERSION CORRECTION                            
                                                                               
                                DFTD4 V3.4.0                                   
-------------------------------------------------------------------------------
-------------------------   ----------------
Dispersion correction           -0.004519244
-------------------------   ----------------

------------------   -----------------
gCP correction             0.005178893
------------------   -----------------

-------------------------   --------------------
FINAL SINGLE POINT ENERGY      -766.989270587747
-------------------------   --------------------

------------------------------------------------------------------------------
                         ORCA SCF GRADIENT CALCULATION
------------------------------------------------------------------------------

Nuc. rep. gradient        (SHARK) ... done (  0.0 sec)
HCore & Overlap gradient  (SHARK) ... done (  0.2 sec)
Split-RIJ-J gradient      (SHARK) ... done (  1.3 sec)
XC gradient                       ... done (  4.5 sec)
CPCM gradient                     ... done (  0.6 sec)
SMD gradient                      ... done (  0.0 sec)
Dispersion correction             ... done (  0.0 sec)

-------------------
DISPERSION GRADIENT
-------------------

   1   C   :   -0.000084407   -0.000006478    0.000000001
   2   C   :   -0.000060575   -0.000059236    0.000000001
   3   C   :    0.000004866   -0.000066393   -0.000000001
   4   C   :    0.000043586   -0.000012984   -0.000000001
   5   C   :    0.000016246    0.000042523    0.000000000
   6   C   :   -0.000050371    0.000050882   -0.000000000
   7   O   :    0.000026041    0.000089173    0.000000002
   8   Cl  :    0.000166000   -0.000033398   -0.000000003
   9   H   :   -0.000040663    0.000000663    0.000000001
  10   H   :   -0.000026268   -0.000031730    0.000000001
  11   H   :    0.000010531   -0.000038526   -0.000000001
  12   H   :   -0.000023345    0.000034141   -0.000000001
  13   H   :    0.000018360    0.000031362    0.000000000

Difference to translation invariance:
           :   -0.0000000000    0.0000000000    0.0000000000

Difference to rotation invariance:
           :    0.0000000000    0.0000000000   -0.0000000000

Norm of the Dispersion gradient    ...    0.0002707800
RMS gradient                       ...    0.0000433595
MAX gradient                       ...    0.0001659997
gCP correction                   ... done

------------------
CARTESIAN GRADIENT
------------------

   1   C   :    0.000219508   -0.000209289    0.000003932
   2   C   :    0.000307404    0.000950535   -0.000002533
   3   C   :   -0.000559742    0.000284131    0.000001790
   4   C   :    0.001935267   -0.001606389    0.000000960
   5   C   :    0.002279263    0.002336860   -0.000002356
[...]
Kinetic Energy     :        764.56167693748080 Eh           20804.78092 eV
Virial Ratio       :          2.00317610471888

DFT components:
N(Alpha)           :       33.000005687951 electrons
N(Beta)            :       33.000005687951 electrons
N(Total)           :       66.000011375902 electrons
E(X)               :      -68.842908167644 Eh       
E(C)               :       -2.264406543026 Eh       
E(XC)              :      -71.107314710670 Eh       

CPCM Solvation Model Properties:
Surface-charge          :         -0.02940680237533
Corrected charge        :         -0.00000000000000
Outlying charge corr.   :          0.00006631064704 Eh               0.00180 eV
Free-energy (cav+disp)  :          0.00534273317413 Eh               0.14538 eV

---------------
SCF CONVERGENCE
---------------

  Last Energy change         ...    2.9543e-09  Tolerance :   1.0000e-07
  Last MAX-Density change    ...    5.0688e-05  Tolerance :   1.0000e-07
  Last RMS-Density change    ...    1.9922e-06  Tolerance :   5.0000e-09
  Last DIIS Error            ...    4.2494e-05  Tolerance :   1.0000e-07
  Last Orbital Gradient      ...    9.3584e-06  Tolerance :   1.0000e-04
  Last Orbital Rotation      ...    4.7908e-05  Tolerance :   1.0000e-04


----------------
ORBITAL ENERGIES
----------------

  NO   OCC          E(Eh)            E(eV) 
   0   2.0000    -101.223708     -2754.4371 
   1   2.0000     -18.991448      -516.7836 
   2   2.0000     -10.113144      -275.1926 
   3   2.0000     -10.100581      -274.8508 
   4   2.0000     -10.049423      -273.4587 
   5   2.0000     -10.043854      -273.3072 
   6   2.0000     -10.043355      -273.2936 
   7   2.0000     -10.038909      -273.1726 
   8   2.0000      -9.379187      -255.2206 
   9   2.0000      -7.125447      -193.8933 
  10   2.0000      -7.115558      -193.6242 
  11   2.0000      -7.114947      -193.6076 
  12   2.0000      -1.034104       -28.1394 
  13   2.0000      -0.855398       -23.2766 
  14   2.0000      -0.804157       -21.8822 
  15   2.0000      -0.720212       -19.5980 
  16   2.0000      -0.703353       -19.1392 
  17   2.0000      -0.603555       -16.4236 
  18   2.0000      -0.570044       -15.5117 
  19   2.0000      -0.519357       -14.1324 
  20   2.0000      -0.469589       -12.7782 
  21   2.0000      -0.450443       -12.2572 
  22   2.0000      -0.417663       -11.3652 
  23   2.0000      -0.401701       -10.9308 
  24   2.0000      -0.401158       -10.9161 
  25   2.0000      -0.372804       -10.1445 
  26   2.0000      -0.341333        -9.2882 
  27   2.0000      -0.333309        -9.0698 
  28   2.0000      -0.322137        -8.7658 
  29   2.0000      -0.311691        -8.4815 
  30   2.0000      -0.288758        -7.8575 
  31   2.0000      -0.238206        -6.4819 
  32   2.0000      -0.214282        -5.8309 
  33   0.0000      -0.044566        -1.2127 
  34   0.0000      -0.028613        -0.7786 
  35   0.0000       0.000270         0.0074 
  36   0.0000       0.079498         2.1633 
  37   0.0000       0.112107         3.0506 
  38   0.0000       0.114925         3.1273 
  39   0.0000       0.116131         3.1601 
  40   0.0000       0.136533         3.7152 
  41   0.0000       0.151899         4.1334 
  42   0.0000       0.164064         4.4644 
  43   0.0000       0.183513         4.9937 
*Only the first 10 virtual orbitals were printed.
Total SCF time: 0 days 0 hours 0 min 6 sec 
Finished LeanSCF after   7.0 sec

Maximum memory used throughout the entire LEANSCF-calculation: 20.9 MB


-------------------------------------------------------------------------------
                          DFT DISPERSION CORRECTION                            
                                                                               
                                DFTD4 V3.4.0                                   
-------------------------------------------------------------------------------
-------------------------   ----------------
Dispersion correction           -0.004514625
-------------------------   ----------------

------------------   -----------------
gCP correction             0.005156484
------------------   -----------------

-------------------------   --------------------
FINAL SINGLE POINT ENERGY      -766.989363027860
-------------------------   --------------------

------------------------------------------------------------------------------
                         ORCA SCF GRADIENT CALCULATION
------------------------------------------------------------------------------

Nuc. rep. gradient        (SHARK) ... done (  0.0 sec)
HCore & Overlap gradient  (SHARK) ... done (  0.2 sec)
Split-RIJ-J gradient      (SHARK) ... done (  1.3 sec)
XC gradient                       ... done (  4.3 sec)
CPCM gradient                     ... done (  0.6 sec)
SMD gradient                      ... done (  0.0 sec)
Dispersion correction             ... done (  0.0 sec)

-------------------
DISPERSION GRADIENT
-------------------

   1   C   :   -0.000084347   -0.000006479    0.000000001
   2   C   :   -0.000060593   -0.000059277    0.000000000
   3   C   :    0.000004874   -0.000066547   -0.000000000
   4   C   :    0.000043561   -0.000013025   -0.000000000
   5   C   :    0.000016304    0.000042599    0.000000000
   6   C   :   -0.000050356    0.000051036    0.000000001
   7   O   :    0.000025517    0.000089167    0.000000000
   8   Cl  :    0.000166081   -0.000033546   -0.000000002
   9   H   :   -0.000040654    0.000000688    0.000000000
  10   H   :   -0.000026215   -0.000031724   -0.000000000
  11   H   :    0.000010446   -0.000038570   -0.000000000
  12   H   :   -0.000023188    0.000034182    0.000000001
  13   H   :    0.000018570    0.000031498   -0.000000000

Difference to translation invariance:
           :   -0.0000000000    0.0000000000    0.0000000000

Difference to rotation invariance:
           :    0.0000000000   -0.0000000000    0.0000000000

Norm of the Dispersion gradient    ...    0.0002708851
RMS gradient                       ...    0.0000433763
MAX gradient                       ...    0.0001660810
gCP correction                   ... done

------------------
CARTESIAN GRADIENT
------------------

   1   C   :    0.000056001   -0.000031790   -0.000000293
   2   C   :   -0.000036688    0.000055553    0.000000096
   3   C   :    0.000050311    0.000043210    0.000000288
   4   C   :   -0.000388133    0.000107452    0.000000552
   5   C   :   -0.000052167   -0.000292336    0.000000206
   6   C   :   -0.000196703   -0.000074531   -0.000000197
   7   O   :    0.000327843    0.000259722   -0.000000362
   8   Cl  :    0.000218705   -0.000038484   -0.000000294
   9   H   :    0.000055699    0.000034910    0.000000142
  10   H   :    0.000040569    0.000060180   -0.000000295
  11   H   :   -0.000056401    0.000014231   -0.000000058
  12   H   :    0.000097451   -0.000022718    0.000000129
  13   H   :   -0.000116489   -0.000115400    0.000000087

Difference to translation invariance:
           :    0.0000000000   -0.0000000000    0.0000000000

Difference to rotation invariance:
           :    0.0000000109   -0.0000000096   -0.0005559600

Norm of the Cartesian gradient     ...    0.0007627068
RMS gradient                       ...    0.0001221308
MAX gradient                       ...    0.0003881328

-------
TIMINGS
-------

Total SCF gradient time     ....        6.985 sec

Densities                   ....       0.000 sec  (  0.0%)
One electron gradient       ....       0.179 sec  (  2.6%)
RI-J Coulomb gradient       ....       1.290 sec  ( 18.5%)
XC gradient                 ....       4.342 sec  ( 62.2%)
CPCM gradient               ....       0.623 sec  (  8.9%)
   A-Matrix (El+Nuc)        ....       0.044 sec  (  0.6%)
   Potential                ....       0.579 sec  (  8.3%)
SMD gradient                ....       0.011 sec  (  0.2%)

Maximum memory used throughout the entire SCFGRAD-calculation: 33.3 MB

------------------------------------------------------------------------------
                              ORCA PROPERTY CALCULATIONS
------------------------------------------------------------------------------

GBWName                                 ... xtb_opt.gbw
Number of atoms                         ...     13
Number of basis functions               ...    190
Max core memory                         ...   1024 MB

Electric properties:
Dipole moment                           ... YES
Quadrupole moment                       ...  NO
Static polarizability (Dipole/Dipole)   ...  NO
Static polarizability (Dipole/Quad.)    ...  NO
Static polarizability (Quad./Quad.)     ...  NO
Static polarizability (Velocity)        ...  NO

Atomic electric properties:
Dipole moment                           ...  NO
Quadrupole moment                       ...  NO
Static polarizability                   ...  NO

Choice of electric origin               ... Center of mass
Position of electric origin             ...     0.012050    -0.001977    -0.000005

General magnetic properties:
Magnetizability                         ...  NO

EPR properties:
g-Tensor (aka g-matrix)                 ...  NO
Zero-Field splitting spin-orbit         ...  NO
Zero-field splitting spin-spin          ...  NO
Hyperfine couplings                     ...  NO (   0 nuclei)
Quadrupole couplings                    ...  NO (   0 nuclei)
Contact density                         ...  NO (   0 nuclei)

NMR properties:
Chemical shifts                         ...  NO (   0 nuclei)
Spin-rotation constants                 ...  NO (   0 nuclei)
Spin-spin couplings                     ...  NO (   0 nuclei,    0 pairs)

Choice of magnetic origin               ... GIAO
Position of magnetic origin             ...     0.000000     0.000000     0.000000

Properties with geometric perturbations:
SCF Hessian                             ...  NO
IR spectrum                             ...  NO
VCD spectrum                            ...  NO
X-ray spectroscopy properties:
SCF XES/XAS/RIXS spectra                ...  NO


-------------
DIPOLE MOMENT
-------------

Method             : SCF
Type of density    : Electron Density
Multiplicity       :   1
Irrep              :   0
Energy             :  -766.9900048874734466 Eh
Relativity type    : 
Basis              : AO
                                X                 Y                 Z
Electronic contribution:      8.759052665      -0.220453668      -0.000084347
Nuclear contribution   :    -10.286243241       0.825475435       0.000103156
                        -----------------------------------------
Total Dipole Moment    :     -1.527190575       0.605021766       0.000018809
                        -----------------------------------------
Magnitude (a.u.)       :      1.642669289
Magnitude (Debye)      :      4.175333513



--------------------
Rotational spectrum 
--------------------
 
Rotational constants in cm-1:             0.098196             0.051058             0.033592 
Rotational constants in MHz :          2943.827273          1530.685991          1007.053706 

Dipole components along the rotational axes: 
x,y,z [a.u.] :     1.524335     0.612180    -0.000001 
x,y,z [Debye]:     3.874553     1.556037    -0.000003 

 

Dipole moment calculation done in   0.0 sec 

Maximum memory used throughout the entire PROP-calculation: 11.7 MB

--------------------------------
SUGGESTED CITATIONS FOR THIS RUN
--------------------------------

Below you find a list of papers that are relevant to this ORCA run
We neither can nor want to force you to cite these papers, but we appreciate if you do
You receive ORCA, which is the product of decades of hard work by many enthusiastic individuals, for free
The only thing we kindly ask in return is that you cite our papers,
We deeply appreciate it, if you show your appreciation for ORCA by not just citing the generic ORCA reference.

Please note that relegating all ORCA citations to the supporting information does *not* help us.
SI sections are not indexed - citations you put there will not count into any citation statistics
But we need these citations in order to attract the funding resources that allow us to do what we are doing

Therefore, if you are a happy ORCA user, please consider citing a few of the papers listed below in the main body of your paper

In addition to the list printed below, the program has created the file xtb_opt.bibtex that contains the list in bibtex format
You can import this file easily into all common literature databanks and citation aid programs


List of essential papers. We consider these as the minimum necessary citations

  1. Neese,F.
     Software update: the ORCA program system, version 5.0
     WIRES Comput. Molec. Sci., 2022 12(1)e1606
     doi.org/10.1002/wcms.1606
  2. Grimme,S.; Hansen,A.; Ehlert,S.; Mewes,J.
     r2SCAN-3c: A 'Swiss army knife' composite electronic-structure method
     J. Chem. Phys., 2021 154 064103
     doi.org/10.1063/5.0040021

List of papers to cite with high priority. The work reported in these papers was absolutely
necessary for this run to complete.
Our perspective: the developers of density functionals and basis sets usually get cited in chemistry papers
Good! But without the algorithms to do something with them, the functionals or basis sets would not do anything.
Hence, in our opinion, the algorithm design and method developments papers are equally worthy of getting cited

  1. Neese,F.
     An improvement of the resolution of the identity approximation for the formation of the Coulomb matrix
     J. Comp. Chem., 2003 24(14)1740-1747
     doi.org/10.1002/jcc.10318
  2. Garcia-Rates,M.; Neese,F.
     Effect of the Solute Cavity on the Solvation Energy and its Derivatives within the Framework of the Gaussian Charge Scheme
     J. Comput. Chem., 2020 41 922-939
     doi.org/10.1002/jcc.26139
  3. Neese,F.
     The SHARK Integral Generation and Digestion System
     J. Comp. Chem., 2022  1-16
     doi.org/10.1002/jcc.26942
  4. Lehtola,S.; Steigemann,C.; Oliveira,M.; Marques,M.
     Recent developments in Libxc - A comprehensive library of functionals for density functional theory
     Software X, 2018 7 
     doi.org/10.1016/j.softx.2017.11.002
  5. Caldeweyher,E.; Bannwarth,C.; Grimme,S.
     Extension of the D3 dispersion coefficient model
     J. Chem. Phys., 2017 147 034112-XXXX
     doi.org/10.1063/1.4993215
  6. Caldeweyher,E.; Ehlert,S.; Hansen,A.; Neugebauer,H.; Spicher,S.; Bannwarth,C.; Grimme,S.
     A generally applicable atomic-charge dependent London dispersion correction
     J. Chem. Phys., 2019 150 154122-XXXX
     doi.org/10.1063/1.5090222
  7. Caldeweyher,E.; Mewes,J.; Ehlert,S.; Grimme,S.
     Extension and evaluation of the D4 London-dispersion model for periodic systems
     Phys. Chem. Chem. Phys., 2020 22(16)8499-8512
     doi.org/10.1039/D0CP00502A

List of suggested additional citations. These are papers that are important in the 'surrounding' of 
of this run, or papers that preceded the highly important papers. If you like your results we are grateful for a citation.

  1. Neese,F.
     The ORCA program system
     WIRES Comput. Molec. Sci., 2012 2(1)73-78
     doi.org/10.1002/wcms.81
  2. Neese,F.
     Software update: the ORCA program system, version 4.0
     WIRES Comput. Molec. Sci., 2018 8(1)1-6
     doi.org/10.1002/wcms.1327
  3. Neese,F.; Wennmohs,F.; Becker,U.; Riplinger,C.
     The ORCA quantum chemistry program package
     J. Chem. Phys., 2020 152 Art. No. L224108
     doi.org/10.1063/5.0004608

List of optional additional citations

  1. Neese,F.
     Approximate second-order SCF convergence for spin unrestricted wavefunctions
     Chem. Phys. Lett., 2000 325(1-3)93-98
     doi.org/10.1016/s0009-2614(00)00662-x

Timings for individual modules:

Sum of individual times          ...       16.674 sec (=   0.278 min)
Startup calculation              ...        2.160 sec (=   0.036 min)  13.0 %
SCF iterations                   ...        7.321 sec (=   0.122 min)  43.9 %
Property calculations            ...        0.113 sec (=   0.002 min)   0.7 %
SCF Gradient evaluation          ...        7.081 sec (=   0.118 min)  42.5 %
                             ****ORCA TERMINATED NORMALLY****
TOTAL RUN TIME: 0 days 0 hours 0 minutes 17 seconds 896 msec
  ------------------------------------------------------------------------
          * successful ORCA run, taking over control again...

         :::::::::::::::::::::::::::::::::::::::::::::::::::::
         ::                  ORCA SUMMARY                   ::
         :::::::::::::::::::::::::::::::::::::::::::::::::::::
         :: total energy            -766.989363027860 Eh    ::
         :: gradient norm              0.000762706824 Eh/a0 ::
         :: HOMO-LUMO gap              0.000000000000 eV    ::
         :::::::::::::::::::::::::::::::::::::::::::::::::::::

           -------------------------------------------------
          |                Property Printout                |
           -------------------------------------------------
           -------------------------------------------------
          |                Geometry Summary                 |
           -------------------------------------------------

      molecular mass/u    :      128.5564616
   center of mass at/Å    :        0.0063938      -0.0010371      -0.0000024
  moments of inertia/u·Å² :        0.1716730E+03   0.3301607E+03   0.5018337E+03
rotational constants/cm⁻¹ :        0.9819618E-01   0.5105887E-01   0.3359207E-01

 * 13 selected distances

     #   Z          #   Z                                           value/Å
     1   6 C        2   6 C                                       1.3926370
     2   6 C        3   6 C                                       1.3918145
     3   6 C        4   6 C                                       1.3885722
     4   6 C        5   6 C                                       1.3985000
     1   6 C        6   6 C                                       1.3894700
     5   6 C        6   6 C                                       1.3961004
     5   6 C        7   8 O                                       1.3665416
     4   6 C        8  17 Cl                                      1.7573655 (max)
     1   6 C        9   1 H                                       1.0848862
     2   6 C       10   1 H                                       1.0842972
     3   6 C       11   1 H                                       1.0844050
     6   6 C       12   1 H                                       1.0865637
     7   8 O       13   1 H                                       0.9683126 (min)

 * 5 distinct bonds (by element types)

   Z      Z             #   av. dist./Å        max./Å        min./Å
   1 H    6 C           4     1.0850380     1.0865637     1.0842972
   6 C    6 C           6     1.3928490     1.3985000     1.3885722
   1 H    8 O           1     0.9683126     0.9683126     0.9683126
   6 C    8 O           1     1.3665416     1.3665416     1.3665416
   6 C   17 Cl          1     1.7573655     1.7573655     1.7573655


optimized geometry written to: xtbopt.coord


           -------------------------------------------------
          | TOTAL ENERGY             -766.989363027860 Eh   |
          | GRADIENT NORM               0.000762706824 Eh/α |
           -------------------------------------------------

------------------------------------------------------------------------
 * finished run on 2025/04/03 at 13:54:55.768     
------------------------------------------------------------------------
 total:
 * wall-time:     0 d,  0 h,  2 min,  1.903 sec
 *  cpu-time:     0 d,  0 h,  0 min,  0.378 sec
 * ratio c/w:     0.003 speedup
 SCF:
 * wall-time:     0 d,  0 h,  0 min, 15.632 sec
 *  cpu-time:     0 d,  0 h,  0 min,  0.197 sec
 * ratio c/w:     0.013 speedup
 ANC optimizer:
 * wall-time:     0 d,  0 h,  1 min, 46.249 sec
 *  cpu-time:     0 d,  0 h,  0 min,  0.169 sec
 * ratio c/w:     0.002 speedup

