13
 energy: -766.988690490400 gnorm: 0.018087928539 xtb: 6.7.1 (edcfbbe)
C           -2.41203105186883       -0.10226018964531       -0.00002142410001
C           -1.82905003591050       -1.35738298110149        0.00012194990005
C           -0.44924599259907       -1.47551194285384        0.00001852580001
C            0.33465908574830       -0.33785442684971        0.00005061210002
C           -0.23684704130495        0.93575331861466        0.00005122370002
C           -1.62445037111984        1.03464906645848       -0.00010652020005
O            0.57636740815540        2.01790094859419        0.00007526260003
Cl           2.07150180451794       -0.47380478370996       -0.00007176360003
H           -3.48579940034465       -0.00360433460160        0.00011636220005
H           -2.44032312898137       -2.24480402689473       -0.00001135950001
H            0.02553695101132       -2.44280130668247       -0.00011699040005
H           -2.08342904512322        2.01179359019148       -0.00008784850004
H            0.05494725052435        2.83600026135671        0.00006654270003
13
 energy: -766.989270587747 gnorm: 0.007958410045 xtb: 6.7.1 (edcfbbe)
C           -2.41707377666982       -0.10152939235289        0.00003447149207
C           -1.83158623647976       -1.36280145146593        0.00001561244462
C           -0.44612260693158       -1.47870541699679       -0.00000761584380
C            0.34075389084525       -0.33611673596010       -0.00000911727208
C           -0.23569832237864        0.93956662871451       -0.00000090025692
C           -1.62695542117184        1.04023924718370       -0.00000330932818
O            0.57972214125803        2.02698880809165        0.00003072527132
Cl           2.08391591938850       -0.48228327852635       -0.00003809786622
H           -3.49595690303740       -0.00112350707160        0.00003892139411
H           -2.44435618181492       -2.25586816420539        0.00003512242276
H            0.02963578448046       -2.45169979675369       -0.00004781923168
H           -2.08233391142685        2.02525922926750       -0.00003922820428
H            0.04789205604100        2.83614694550627        0.00007579415070
13
 energy: -766.989351352427 gnorm: 0.003265546072 xtb: 6.7.1 (edcfbbe)
C           -2.41895699139516       -0.10107816733191        0.00001300026962
C           -1.83253775560848       -1.36461621279103        0.00000698752834
C           -0.44514455653458       -1.47988595285907       -0.00001664504751
C            0.34236900128520       -0.33543924211019       -0.00002243960540
C           -0.23544076595428        0.94006332624559        0.00000491025653
C           -1.62792546182768        1.04213033262158        0.00001390656678
O            0.58210247287833        2.03124960583683        0.00001087230783
Cl           2.09018679667989       -0.48511543005453       -0.00002753864035
H           -3.49949141804343        0.00046036240106        0.00002757447889
H           -2.44531034605420       -2.25972754067246        0.00002705011840
H            0.03019781182871       -2.45509969091069       -0.00001941821465
H           -2.07939700704773        2.03095026529451        0.00001276039227
H            0.04118464217033        2.83418142573631        0.00005353624081
13
 energy: -766.989360883797 gnorm: 0.001432526302 xtb: 6.7.1 (edcfbbe)
C           -2.41893579269924       -0.10083044838740        0.00001880635980
C           -1.83243623985846       -1.36446266615092        0.00000454593178
C           -0.44506951605245       -1.48004490762488       -0.00000922529507
C            0.34204198462798       -0.33552217245729       -0.00001142348179
C           -0.23535599710306        0.93939102007943        0.00000217177340
C           -1.62781862771285        1.04220819859685        0.00001599662668
O            0.58273469465410        2.03223727612361        0.00000704738129
Cl           2.09150534140646       -0.48522803447708       -0.00002992179510
H           -3.49944343644495        0.00101406513363        0.00002522511710
H           -2.44510349282830       -2.25956532625219        0.00001233044297
H            0.02961142348427       -2.45547682243819       -0.00001746049801
H           -2.07770658007453        2.03172153142334        0.00002466743612
H            0.03781265329433        2.83263136019737        0.00004179814733
13
 energy: -766.989362983448 gnorm: 0.000761226581 xtb: 6.7.1 (edcfbbe)
C           -2.41833842199197       -0.10039817036581        0.00001840103104
C           -1.83209748473030       -1.36363177853833        0.00000373224904
C           -0.44516626736050       -1.48011796753403       -0.00000381156044
C            0.34139235947352       -0.33580250020316       -0.00000056960491
C           -0.23500605159071        0.93839012828786        0.00001062156196
C           -1.62726439663330        1.04189268079590        0.00002329754953
O            0.58284514469670        2.03317546401847        0.00000324659925
Cl           2.09239061793807       -0.48526219361410       -0.00002944331598
H           -3.49841827701330        0.00160833029030        0.00002809943545
H           -2.44470952344134       -2.25828626196283       -0.00000683984619
H            0.02857292046726       -2.45556925502112       -0.00001772204019
H           -2.07573426203467        2.03158719461099        0.00003640824353
H            0.03337004603460        2.83048739434972        0.00001914036161
13
 energy: -766.989362983448 gnorm: 0.000761226581 xtb: 6.7.1 (edcfbbe)
C           -2.41833842199197       -0.10039817036581        0.00001840103104
C           -1.83209748473030       -1.36363177853833        0.00000373224904
C           -0.44516626736050       -1.48011796753403       -0.00000381156044
C            0.34139235947352       -0.33580250020316       -0.00000056960491
C           -0.23500605159071        0.93839012828786        0.00001062156196
C           -1.62726439663330        1.04189268079590        0.00002329754953
O            0.58284514469670        2.03317546401847        0.00000324659925
Cl           2.09239061793807       -0.48526219361410       -0.00002944331598
H           -3.49841827701330        0.00160833029030        0.00002809943545
H           -2.44470952344134       -2.25828626196283       -0.00000683984619
H            0.02857292046726       -2.45556925502112       -0.00001772204019
H           -2.07573426203467        2.03158719461099        0.00003640824353
H            0.03337004603460        2.83048739434972        0.00001914036161
