
                                 *****************
                                 * O   R   C   A *
                                 *****************

                                            #,                                       
                                            ###                                      
                                            ####                                     
                                            #####                                    
                                            ######                                   
                                           ########,                                 
                                     ,,################,,,,,                         
                               ,,#################################,,                 
                          ,,##########################################,,             
                       ,#########################################, ''#####,          
                    ,#############################################,,   '####,        
                  ,##################################################,,,,####,       
                ,###########''''           ''''###############################       
              ,#####''   ,,,,##########,,,,          '''####'''          '####       
            ,##' ,,,,###########################,,,                        '##       
           ' ,,###''''                  '''############,,,                           
         ,,##''                                '''############,,,,        ,,,,,,###''
      ,#''                                            '''#######################'''  
     '                                                          ''''####''''         
             ,#######,   #######,   ,#######,      ##                                
            ,#'     '#,  ##    ##  ,#'     '#,    #''#        ,####,   ,####,        
            ##       ##  ##   ,#'  ##            #'  '#       #'       #'  '#        
            ##       ##  #######   ##           ,######,      #####,   #    #        
            '#,     ,#'  ##    ##  '#,     ,#' ,#      #,     #,   #   #,  ,#        
             '#######'   ##     ##  '#######'  #'      '#     '####' # '####'        



                #########################################################
                #                        -***-                          #
                #          Department of theory and spectroscopy        #
                #                                                       #
                #                      Frank Neese                      #
                #                                                       #
                #     Directorship, Architecture, Infrastructure        #
                #                    SHARK, DRIVERS                     #
                #        Core code/Algorithms in most modules           #
                #                                                       #
                #        Max Planck Institute fuer Kohlenforschung      #
                #                Kaiser Wilhelm Platz 1                 #
                #                 D-45470 Muelheim/Ruhr                 #
                #                      Germany                          #
                #                                                       #
                #                  All rights reserved                  #
                #                        -***-                          #
                #########################################################


                         Program Version 6.0.0  -   RELEASE  -


 With contributions from (in alphabetic order):
   Daniel Aravena         : Magnetic Suceptibility
   Michael Atanasov       : Ab Initio Ligand Field Theory (pilot matlab implementation)
   Alexander A. Auer      : GIAO ZORA, VPT2 properties, NMR spectrum
   Ute Becker             : All parallelization in ORCA, NUMFREQ, NUMCALC
   Giovanni Bistoni       : ED, misc. LED, open-shell LED, HFLD
   Martin Brehm           : Molecular dynamics
   Dmytro Bykov           : pre 5.0 version of the SCF Hessian
   Marcos Casanova-Páez   : Triplet and SCS-CIS(D). UHF-(DLPNO)-IP/EA/STEOM-CCSD. UHF-CVS-IP/STEOM-CCSD
   Vijay G. Chilkuri      : MRCI spin determinant printing, contributions to CSF-ICE
   Pauline Colinet        : FMM embedding
   Dipayan Datta          : RHF DLPNO-CCSD density
   Achintya Kumar Dutta   : EOM-CC, STEOM-CC
   Nicolas Foglia         : Exact transition moments, OPA infrastructure, MCD improvements
   Dmitry Ganyushin       : Spin-Orbit,Spin-Spin,Magnetic field MRCI
   Miquel Garcia          : C-PCM and meta-GGA Hessian, CCSD/C-PCM, Gaussian charge scheme
   Tiago L. C. Gouveia    : GS-ROHF, GS-ROCIS
   Yang Guo               : DLPNO-NEVPT2, F12-NEVPT2, CIM, IAO-localization
   Andreas Hansen         : Spin unrestricted coupled pair/coupled cluster methods
   Ingolf Harden          : AUTO-CI MPn and infrastructure 
   Benjamin Helmich-Paris : MC-RPA, TRAH-(SCF,CASSCF), AVAS, COSX integrals, SCF dyn. polar.
   Lee Huntington         : MR-EOM, pCC
   Robert Izsak           : Overlap fitted RIJCOSX, COSX-SCS-MP3, EOM
   Riya Kayal             : Wick's Theorem for AUTO-CI, AUTO-CI UHF-CCSDT
   Emily Kempfer          : AUTO-CI, RHF CISDT and CCSDT
   Christian Kollmar      : KDIIS, OOCD, Brueckner-CCSD(T), CCSD density, CASPT2, CASPT2-K, improved NEVPT2
   Axel Koslowski         : Symmetry handling
   Simone Kossmann        : Meta GGA functionals, TD-DFT gradient, OOMP2, (MP2 Hessian; deprecated post 5.0)
   Lucas Lang             : DCDCAS
   Marvin Lechner         : AUTO-CI (C++ implementation), FIC-MRCC
   Spencer Leger          : CASSCF response
   Dagmar Lenk            : GEPOL surface, SMD, ORCA-2-JSON
   Dimitrios Liakos       : Extrapolation schemes; Compound Job, initial MDCI parallelization
   Dimitrios Manganas     : Further ROCIS development; embedding schemes. LFT, Crystal Embedding
   Dimitrios Pantazis     : SARC Basis sets
   Anastasios Papadopoulos: AUTO-CI, single reference methods and gradients
   Taras Petrenko         : pre 6.0 DFT Hessian and TD-DFT gradient, (ASA, deprecated), ECA, 1-Electron XAS/XES, NRVS
   Peter Pinski           : DLPNO-MP2, DLPNO-MP2 Gradient
   Christoph Reimann      : Effective Core Potentials
   Marius Retegan         : Local ZFS, SOC
   Christoph Riplinger    : Optimizer, TS searches, QM/MM, DLPNO-CCSD(T), (RO)-DLPNO pert. Triples
   Michael Roemelt        : Original ROCIS implementation
   Masaaki Saitow         : Open-shell DLPNO-CCSD energy and density
   Barbara Sandhoefer     : DKH picture change effects
   Kantharuban Sivalingam : CASSCF convergence/infrastructure, NEVPT2 and variants, FIC-MRCI
   Bernardo de Souza      : ESD, SOC TD-DFT
   Georgi Stoychev        : AutoAux, RI-MP2 NMR, DLPNO-MP2 response, X2C
   Van Anh Tran           : RI-MP2 g-tensors
   Willem Van den Heuvel  : Paramagnetic NMR
   Zikuan Wang            : NOTCH, Electric field optimization 
   Frank Wennmohs         : Technical directorship and infrastructure
   Hang Xu                : AUTO-CI-Response properties 


 We gratefully acknowledge several colleagues who have allowed us to
 interface, adapt or use parts of their codes:
   Stefan Grimme, W. Hujo, H. Kruse, P. Pracht,  : VdW corrections, initial TS optimization,
                  C. Bannwarth, S. Ehlert,         DFT functionals, gCP, sTDA/sTD-DF
                  L. Wittmann, M. Mueller
   Ed Valeev, F. Pavosevic, A. Kumar             : LibInt (2-el integral package), F12 methods
   Garnet Chan, S. Sharma, J. Yang, R. Olivares  : DMRG
   Ulf Ekstrom                                   : XCFun DFT Library
   Mihaly Kallay                                 : mrcc  (arbitrary order and MRCC methods)
   Frank Weinhold                                : gennbo (NPA and NBO analysis)
   Simon Mueller                                 : openCOSMO-RS
   Christopher J. Cramer and Donald G. Truhlar   : smd solvation model
   Lars Goerigk                                  : TD-DFT with DH, B97 family of functionals
   V. Asgeirsson, H. Jonsson                     : NEB implementation
   FAccTs GmbH                                   : IRC, NEB, NEB-TS, DLPNO-Multilevel, CI-OPT
                                                   MM, QMMM, 2- and 3-layer-ONIOM, Crystal-QMMM,
                                                   LR-CPCM, SF, NACMEs, symmetry and pop. for TD-DFT,
                                                   nearIR, NL-DFT gradient (VV10), updates on ESD,
                                                   ML-optimized integration grids, MBIS, APM,
                                                   GOAT, DOCKER, SOLVATOR, interface openCOSMO-RS
   S Lehtola, MJT Oliveira, MAL Marques          : LibXC Library
   Liviu Ungur et al                             : ANISO software


 Your calculation uses the libint2 library for the computation of 2-el integrals
 For citations please refer to: http://libint.valeyev.net

 Your ORCA version has been built with support for libXC version: 6.2.2
 For citations please refer to: https://libxc.gitlab.io

 This ORCA versions uses:
   CBLAS   interface :  Fast vector & matrix operations
   LAPACKE interface :  Fast linear algebra routines
   SCALAPACK package :  Parallel linear algebra routines
   Shared memory     :  Shared parallel matrices
   BLAS/LAPACK       :  OpenBLAS 0.3.27  USE64BITINT DYNAMIC_ARCH NO_AFFINITY SkylakeX SINGLE_THREADED
        Core in use  :  SkylakeX
   Copyright (c) 2011-2014, The OpenBLAS Project


Your calculation utilizes the geometrical counterpoise correction gCP
Please cite in your paper:
H.Kruse, S. Grimme J.Chem.Phys., 136, (2012), 154101 
   

Your calculation utilizes the DFT-NL dispersion correction.
Cite in your paper:
Vydrov, O. A.; Van Voorhis, T. J. Chem. Phys. 2010, 133, 244103
Hujo, W.; Grimme, S. J. Chem. Theory Comput. 2011, 7, 3866 
   

================================================================================

----- Orbital basis set information -----
Your calculation utilizes the basis: def2-TZVP
   F. Weigend and R. Ahlrichs, Phys. Chem. Chem. Phys. 7, 3297 (2005).

----- AuxJ basis set information -----
Your calculation utilizes the auxiliary basis: def2/J
   F. Weigend, Phys. Chem. Chem. Phys. 8, 1057 (2006).

================================================================================
                                        WARNINGS
                       Please study these warnings very carefully!
================================================================================


================================================================================
                                       INPUT FILE
================================================================================
NAME = sp_gas.inp
|  1> ! wb97x-v def2-tzvp def2/J RIJCOSX DEFGRID2 scfconv7 GCP(DFT/TZ) printgap
|  2> %output
|  3>     printlevel normal
|  4> end
|  5> * xyz 0 1
|  6> C -2.4183384209203367 -0.10039817032132362 1.8401031028544143e-05
|  7> C -1.8320974839184456 -1.36363177793407 3.7322490359767193e-06
|  8> C -0.4451662671632379 -1.4801179668781477 -3.8115604335284092e-06
|  9> C 0.34139235932224354 -0.33580250005435586 -5.69604910203175e-07
| 10> C -0.23500605148657064 0.9383901278720368 1.0621561949955658e-05
| 11> C -1.6272643959122133 1.0418926803342057 2.329754952153912e-05
| 12> O 0.5828451444384287 2.0331754631175167 3.246599249144431e-06
| 13> Cl 2.092390617010883 -0.485262193399069 -2.9443315965439182e-05
| 14> H -3.4984182754630626 0.0016083302895882128 2.8099435439162005e-05
| 15> H -2.4447095223580204 -2.258286260962124 -6.83984619034069e-06
| 16> H 0.028572920454596834 -2.455569253932996 -1.7722040177587295e-05
| 17> H -2.0757342611148535 2.0315871937107355 3.640824351906088e-05
| 18> H 0.03337004601980737 2.8304873930954533 1.9140361601995105e-05
| 19> *
| 20> 
| 21>                          ****END OF INPUT****
================================================================================

                       ****************************
                       * Single Point Calculation *
                       ****************************

---------------------------------
CARTESIAN COORDINATES (ANGSTROEM)
---------------------------------
  C     -2.418338   -0.100398    0.000018
  C     -1.832097   -1.363632    0.000004
  C     -0.445166   -1.480118   -0.000004
  C      0.341392   -0.335803   -0.000001
  C     -0.235006    0.938390    0.000011
  C     -1.627264    1.041893    0.000023
  O      0.582845    2.033175    0.000003
  Cl     2.092391   -0.485262   -0.000029
  H     -3.498418    0.001608    0.000028
  H     -2.444710   -2.258286   -0.000007
  H      0.028573   -2.455569   -0.000018
  H     -2.075734    2.031587    0.000036
  H      0.033370    2.830487    0.000019

----------------------------
CARTESIAN COORDINATES (A.U.)
----------------------------
  NO LB      ZA    FRAG     MASS         X           Y           Z
   0 C     6.0000    0    12.011   -4.569997   -0.189725    0.000035
   1 C     6.0000    0    12.011   -3.462162   -2.576891    0.000007
   2 C     6.0000    0    12.011   -0.841242   -2.797018   -0.000007
   3 C     6.0000    0    12.011    0.645138   -0.634575   -0.000001
   4 C     6.0000    0    12.011   -0.444097    1.773300    0.000020
   5 C     6.0000    0    12.011   -3.075084    1.968892    0.000044
   6 O     8.0000    0    15.999    1.101418    3.842145    0.000006
   7 Cl   17.0000    0    35.453    3.954045   -0.917013   -0.000056
   8 H     1.0000    0     1.008   -6.611052    0.003039    0.000053
   9 H     1.0000    0     1.008   -4.619831   -4.267543   -0.000013
  10 H     1.0000    0     1.008    0.053995   -4.640353   -0.000033
  11 H     1.0000    0     1.008   -3.922569    3.839143    0.000069
  12 H     1.0000    0     1.008    0.063060    5.348846    0.000036

--------------------------------
INTERNAL COORDINATES (ANGSTROEM)
--------------------------------
 C      0   0   0     0.000000000000     0.00000000     0.00000000
 C      1   0   0     1.392636917446     0.00000000     0.00000000
 C      2   1   0     1.391814367034   119.69596805     0.00000000
 C      3   2   1     1.388572058095   119.70222631     0.00000000
 C      4   3   2     1.398499903886   121.15659170     0.00000000
 C      1   2   3     1.389469863134   120.40107124     0.00000000
 O      5   4   3     1.366541440645   118.89843875   180.00048540
 Cl     4   3   2     1.757365385797   119.62438037   180.00072517
 H      1   2   3     1.084886085472   120.29026224   180.00022733
 H      2   1   3     1.084297078182   120.70366884   180.00030466
 H      3   2   1     1.084404920450   120.70497899   180.00015275
 H      6   1   2     1.086563596838   120.91895673   180.00010368
 H      7   5   4     0.968312551669   108.66566656   180.00040272

---------------------------
INTERNAL COORDINATES (A.U.)
---------------------------
 C      0   0   0     0.000000000000     0.00000000     0.00000000
 C      1   0   0     2.631702377962     0.00000000     0.00000000
 C      2   1   0     2.630147982951   119.69596805     0.00000000
 C      3   2   1     2.624020907014   119.70222631     0.00000000
 C      4   3   2     2.642781816660   121.15659170     0.00000000
 C      1   2   3     2.625717512660   120.40107124     0.00000000
 O      5   4   3     2.582389073472   118.89843875   180.00048540
 Cl     4   3   2     3.320939296389   119.62438037   180.00072517
 H      1   2   3     2.050137588043   120.29026224   180.00022733
 H      2   1   3     2.049024525576   120.70366884   180.00030466
 H      3   2   1     2.049228317926   120.70497899   180.00015275
 H      6   1   2     2.053307625113   120.91895673   180.00010368
 H      7   5   4     1.829845534693   108.66566656   180.00040272

---------------------
BASIS SET INFORMATION
---------------------
There are 4 groups of distinct atoms

 Group   1 Type C   : 11s6p2d1f contracted to 5s3p2d1f pattern {62111/411/11/1}
 Group   2 Type O   : 11s6p2d1f contracted to 5s3p2d1f pattern {62111/411/11/1}
 Group   3 Type Cl  : 14s9p3d1f contracted to 5s5p2d1f pattern {73211/51111/21/1}
 Group   4 Type H   : 5s1p contracted to 3s1p pattern {311/1}

Atom   0C    basis set group =>   1
Atom   1C    basis set group =>   1
Atom   2C    basis set group =>   1
Atom   3C    basis set group =>   1
Atom   4C    basis set group =>   1
Atom   5C    basis set group =>   1
Atom   6O    basis set group =>   2
Atom   7Cl   basis set group =>   3
Atom   8H    basis set group =>   4
Atom   9H    basis set group =>   4
Atom  10H    basis set group =>   4
Atom  11H    basis set group =>   4
Atom  12H    basis set group =>   4
---------------------------------
AUXILIARY/J BASIS SET INFORMATION
---------------------------------
There are 4 groups of distinct atoms

 Group   1 Type C   : 12s5p4d2f1g contracted to 6s4p3d1f1g pattern {711111/2111/211/2/1}
 Group   2 Type O   : 12s5p4d2f1g contracted to 6s4p3d1f1g pattern {711111/2111/211/2/1}
 Group   3 Type Cl  : 14s5p5d2f1g contracted to 8s4p3d1f1g pattern {71111111/2111/311/2/1}
 Group   4 Type H   : 5s2p1d contracted to 3s1p1d pattern {311/2/1}

Atom   0C    basis set group =>   1
Atom   1C    basis set group =>   1
Atom   2C    basis set group =>   1
Atom   3C    basis set group =>   1
Atom   4C    basis set group =>   1
Atom   5C    basis set group =>   1
Atom   6O    basis set group =>   2
Atom   7Cl   basis set group =>   3
Atom   8H    basis set group =>   4
Atom   9H    basis set group =>   4
Atom  10H    basis set group =>   4
Atom  11H    basis set group =>   4
Atom  12H    basis set group =>   4

Checking for AutoStart:
The File: sp_gas.gbw exists
Trying to determine its content:
     ... Fine, the file contains calculation information
     ... Fine, the calculation information was read
     ... Fine, the file contains a basis set
     ... Fine, the basis set was read
     ... Fine, the file contains a geometry
     ... Fine, the geometry was read
     ... Fine, the file contains a set of orbitals
     ... Fine, the orbitals can be read
     => possible old guess file was deleted
     => GBW file was renamed to GES file
     => GES file is set as startup file
     => Guess is set to MORead
     ... now leaving AutoStart

------------------------------------------------------------------------------
                             ORCA STARTUP CALCULATIONS
                           -- RI-GTO INTEGRALS CHOSEN --
------------------------------------------------------------------------------
------------------------------------------------------------------------------
                   ___                                                        
                  /   \      - P O W E R E D   B Y -                         
                 /     \                                                     
                 |  |  |   _    _      __       _____    __    __             
                 |  |  |  | |  | |    /  \     |  _  \  |  |  /  |          
                  \  \/   | |  | |   /    \    | | | |  |  | /  /          
                 / \  \   | |__| |  /  /\  \   | |_| |  |  |/  /          
                |  |  |   |  __  | /  /__\  \  |    /   |      \           
                |  |  |   | |  | | |   __   |  |    \   |  |\   \          
                \     /   | |  | | |  |  |  |  | |\  \  |  | \   \       
                 \___/    |_|  |_| |__|  |__|  |_| \__\ |__|  \__/        
                                                                              
                      - O R C A' S   B I G   F R I E N D -                    
                                      &                                       
                       - I N T E G R A L  F E E D E R -                       
                                                                              
 v1 FN, 2020, v2 2021, v3 2022-2024                                           
------------------------------------------------------------------------------


----------------------
SHARK INTEGRAL PACKAGE
----------------------

Number of atoms                             ...     13
Number of basis functions                   ...    284
Number of shells                            ...    110
Maximum angular momentum                    ...      3
Integral batch strategy                     ... SHARK/LIBINT Hybrid
RI-J (if used) integral strategy            ... SPLIT-RIJ (Revised 2003 algorithm where possible)
Printlevel                                  ...      1
Contraction scheme used                     ... SEGMENTED contraction
Prescreening option                         ... SCHWARTZ
   Thresh                                   ... 3.000e-11
   Tcut                                     ... 1.000e-12
   Tpresel                                  ... 1.000e-12 
Coulomb Range Separation                    ... NOT USED
Exchange Range Separation                   ... Long Range
   Mu parameter                             ... 3.000e-01
   Scaling (regular/separated)              ... 1.670e-01 8.330e-01
Multipole approximations                    ... NOT USED
Finite Nucleus Model                        ... NOT USED
CABS basis                                  ... NOT available
Auxiliary Coulomb fitting basis             ... AVAILABLE
   # of basis functions in Aux-J            ...    449
   # of shells in Aux-J                     ...    147
   Maximum angular momentum in Aux-J        ...      4
Auxiliary J/K fitting basis                 ... NOT available
Auxiliary Correlation fitting basis         ... NOT available
Auxiliary 'external' fitting basis          ... NOT available

Checking pre-screening integrals            ... done (  0.0 sec) Dimension = 110
Check shell pair data                       ... done (  0.0 sec)
Shell pair information
Shell pair cut-off parameter TPreSel        ...   1.0e-12
Total number of shell pairs                 ...      6105
Shell pairs after pre-screening             ...      5622
Total number of primitive shell pairs       ...     19708
Primitive shell pairs kept                  ...     13530
          la=0 lb=0:   1338 shell pairs
          la=1 lb=0:   1564 shell pairs
          la=1 lb=1:    469 shell pairs
          la=2 lb=0:    836 shell pairs
          la=2 lb=1:    476 shell pairs
          la=2 lb=2:    132 shell pairs
          la=3 lb=0:    407 shell pairs
          la=3 lb=1:    237 shell pairs
          la=3 lb=2:    127 shell pairs
          la=3 lb=3:     36 shell pairs

Calculating one electron integrals          ... done (  0.0 sec)
Calculating RI/J V-Matrix + Cholesky decomp.... done (  0.1 sec)
Calculating Nuclear repulsion               ... done (  0.0 sec) ENN=    404.639379296391 Eh

Diagonalization of the overlap matrix:
Smallest eigenvalue                        ... 1.004e-05
Time for diagonalization                   ...    0.008 sec
Threshold for overlap eigenvalues          ... 1.000e-07
Number of eigenvalues below threshold      ... 0
Time for construction of square roots      ...    0.018 sec
Total time needed                          ...    0.035 sec

-------------------
DFT GRID GENERATION
-------------------

General Integration Accuracy     IntAcc      ... 4.388
Radial Grid Type                 RadialGrid  ... OptM3 with GC (2021)
Angular Grid (max. ang.)         AngularGrid ... 4 (Lebedev-302)
Angular grid pruning method      GridPruning ... 4 (adaptive)
Weight generation scheme         WeightScheme... mBecke (2022)
Basis function cutoff            BFCut       ... 1.0000e-11
Integration weight cutoff        WCut        ... 1.0000e-14
Partially contracted basis set               ... off
Rotationally invariant grid construction     ... off
Angular grids for H and He will be reduced by one unit

Total number of grid points                  ...    65594
Total number of batches                      ...     1031
Average number of points per batch           ...       63
Average number of grid points per atom       ...     5046

--------------------
COSX GRID GENERATION
--------------------

GRIDX 1
-------
General Integration Accuracy     IntAcc      ... 3.816
Radial Grid Type                 RadialGrid  ... OptM3 with GC (2021)
Angular Grid (max. ang.)         AngularGrid ... 1 (Lebedev-50)
Angular grid pruning method      GridPruning ... 4 (adaptive)
Weight generation scheme         WeightScheme... mBecke (2022)
Basis function cutoff            BFCut       ... 1.0000e-11
Integration weight cutoff        WCut        ... 1.0000e-14
Partially contracted basis set               ... on
Rotationally invariant grid construction     ... off
Angular grids for H and He will be reduced by one unit

Total number of grid points                  ...     9405
Total number of batches                      ...       79
Average number of points per batch           ...      119
Average number of grid points per atom       ...      723
UseSFitting                                  ... on

GRIDX 2
-------
General Integration Accuracy     IntAcc      ... 4.020
Radial Grid Type                 RadialGrid  ... OptM3 with GC (2021)
Angular Grid (max. ang.)         AngularGrid ... 2 (Lebedev-110)
Angular grid pruning method      GridPruning ... 4 (adaptive)
Weight generation scheme         WeightScheme... mBecke (2022)
Basis function cutoff            BFCut       ... 1.0000e-11
Integration weight cutoff        WCut        ... 1.0000e-14
Partially contracted basis set               ... on
Rotationally invariant grid construction     ... off
Angular grids for H and He will be reduced by one unit

Total number of grid points                  ...    18426
Total number of batches                      ...      150
Average number of points per batch           ...      122
Average number of grid points per atom       ...     1417
UseSFitting                                  ... on

GRIDX 3
-------
General Integration Accuracy     IntAcc      ... 4.338
Radial Grid Type                 RadialGrid  ... OptM3 with GC (2021)
Angular Grid (max. ang.)         AngularGrid ... 3 (Lebedev-194)
Angular grid pruning method      GridPruning ... 4 (adaptive)
Weight generation scheme         WeightScheme... mBecke (2022)
Basis function cutoff            BFCut       ... 1.0000e-11
Integration weight cutoff        WCut        ... 1.0000e-14
Partially contracted basis set               ... on
Rotationally invariant grid construction     ... off
Angular grids for H and He will be reduced by one unit

Total number of grid points                  ...    41227
Total number of batches                      ...      330
Average number of points per batch           ...      124
Average number of grid points per atom       ...     3171
UseSFitting                                  ... on
Initializing property integral containers    ... done (  0.0 sec)

SHARK setup successfully completed in   2.5 seconds

Maximum memory used throughout the entire STARTUP-calculation: 40.7 MB
-------------------------------------------------------------------------------
                                 ORCA GUESS
                   Start orbitals & Density for SCF / CASSCF
-------------------------------------------------------------------------------

------------
SCF SETTINGS
------------
Hamiltonian:
 Density Functional     Method          .... DFT(GTOs)
 Exchange Functional    Exchange        .... WB97X-V
 Correlation Functional Correlation     .... WB97X-V
 Gradients option       PostSCFGGA      .... off
 Hybrid DFT is turned on
   Fraction HF Exchange ScalHFX         ....  0.167000
   Scaling of DF-GGA-X  ScalDFX         ....  0.000000
   Scaling of DF-GGA-C  ScalDFC         ....  1.000000
   Scaling of DF-LDA-C  ScalLDAC        ....  1.000000
   Perturbative correction              ....  0.000000
 Long-range corrected/Screened/Range-Separated Hybrid DFT is turned on
   Amount of maximum screened exact exchange              ....  0.833000
   Range separation parameter mu (erf(mu*r12)/r12)        ....  0.300000
   NL short-range parameter             ....  6.000000
   NL long-range parameter              ....  0.010000
 RI-approximation to the Coulomb term is turned on
   Number of AuxJ basis functions       .... 449
   RIJ-COSX (HFX calculated with COS-X)).... on


General Settings:
 Integral files         IntName         .... sp_gas
 Hartree-Fock type      HFTyp           .... RHF
 Total Charge           Charge          ....    0
 Multiplicity           Mult            ....    1
 Number of Electrons    NEL             ....   66
 Basis Dimension        Dim             ....  284
 Nuclear Repulsion      ENuc            ....    404.6393792964 Eh

Convergence Acceleration:
 AO-DIIS                CNVDIIS         .... on
   Start iteration      DIISMaxIt       ....    12
   Startup error        DIISStart       ....  0.200000
   # of expansion vecs  DIISMaxEq       ....     5
   Bias factor          DIISBfac        ....   1.050
   Max. coefficient     DIISMaxC        ....  10.000
 MO-DIIS                CNVKDIIS        .... off
 Trust-Rad. Augm. Hess. CNVTRAH         .... auto
   Auto Start mean grad. ratio tolernc. ....  1.125000
   Auto Start start iteration           ....     1
   Auto Start num. interpolation iter.  ....    10
   Max. Number of Micro iterations      ....    24
   Max. Number of Macro iterations      .... Maxiter - #DIIS iter
   Number of Davidson start vectors     ....     2
   Converg. threshold    (grad. norm)   ....   1.000e-04
   Grad. Scal. Fac. for Micro threshold ....   0.100
   Minimum threshold for Micro iter.    ....   1.000e-02
   NR start threshold (gradient norm)   ....   1.000e-04
   Initial trust radius                 ....   0.400
   Minimum AH scaling param. (alpha)    ....   1.000
   Maximum AH scaling param. (alpha)    .... 1000.000
   Quad. conv. algorithm                .... NR
   White noise on init. David. guess    .... on
   Maximum white noise                  ....   0.010
   Pseudo random numbers                .... off
   Inactive MOs                         .... canonical
   Orbital update algorithm             .... Taylor
   Preconditioner                       .... Diag
   Full preconditioner red. dimension   ....   250
 SOSCF                  CNVSOSCF        .... on
   Start iteration      SOSCFMaxIt      ....   150
   Startup grad/error   SOSCFStart      ....  0.003300
   Hessian update       SOSCFHessUp     .... L-BFGS
 Level Shifting         CNVShift        .... on
   Level shift para.    LevelShift      ....    0.2500
   Turn off err/grad.   ShiftErr        ....    0.0010
 Zerner damping         CNVZerner       .... off
 Static damping         CNVDamp         .... on
   Fraction old density DampFac         ....    0.7000
   Max. Damping (<1)    DampMax         ....    0.9800
   Min. Damping (>=0)   DampMin         ....    0.0000
   Turn off err/grad.   DampErr         ....    0.1000

SCF Procedure:
 Maximum # iterations   MaxIter         ....   125
 SCF integral mode      SCFMode         .... Direct
   Integral package                     .... SHARK and LIBINT hybrid scheme
 Reset frequency        DirectResetFreq ....    20
 Integral Threshold     Thresh          ....  3.000e-11 Eh
 Primitive CutOff       TCut            ....  1.000e-12 Eh

Convergence Tolerance:
 Convergence Check Mode ConvCheckMode   .... Total+1el-Energy
 Convergence forced     ConvForced      .... 0
 Energy Change          TolE            ....  1.000e-07 Eh
 1-El. energy change                    ....  1.000e-04 Eh
 Orbital Gradient       TolG            ....  1.000e-04
 Orbital Rotation angle TolX            ....  1.000e-04
 DIIS Error             TolErr          ....  1.000e-07

---------------------
INITIAL GUESS: MOREAD
---------------------
Guess MOs are being read from file: sp_gas.ges
Input Geometry matches current geometry (good)
Atom 0: N(Shells)= 11 and 9 - projection required
Input basis set needs projection
NBasis(read)= 190
NBasis(calc)= 284
Basis set overlap was calculated
Using GuessMode=FMatrix for the initial guess
C*T matrix was formed
Effective Fockian was calculated
Effective Fockian was diagonalized
Initial density was built
                      ------------------
                      INITIAL GUESS DONE (   0.1 sec)
                      ------------------
             **** ENERGY FILE WAS UPDATED (sp_gas.en.tmp) ****
Finished Guess after   0.3 sec
Maximum memory used throughout the entire GUESS-calculation: 25.2 MB

-------------------------------------------------------------------------------------------
                                      ORCA LEAN-SCF
                              memory conserving SCF solver
-------------------------------------------------------------------------------------------

----------------------------------------D-I-I-S--------------------------------------------
Iteration    Energy (Eh)           Delta-E    RMSDP     MaxDP     DIISErr   Damp  Time(sec)
-------------------------------------------------------------------------------------------
               ***  Starting incremental Fock matrix formation  ***
    1    -767.2685008261526036     0.00e+00  1.82e-03  7.01e-02  6.83e-02  0.700  16.2
    2    -767.2754028817334984    -6.90e-03  1.53e-03  6.26e-02  4.94e-02  0.700   8.4
                               ***Turning on AO-DIIS***
    3    -767.2804997422367705    -5.10e-03  1.21e-03  4.99e-02  3.52e-02  0.700   8.7
    4    -767.2841908593088647    -3.69e-03  2.95e-03  1.22e-01  2.48e-02  0.000   8.3
                              *** Initializing SOSCF ***
---------------------------------------S-O-S-C-F--------------------------------------
Iteration    Energy (Eh)           Delta-E    RMSDP     MaxDP     MaxGrad    Time(sec)
--------------------------------------------------------------------------------------
    5    -767.2934998319951774    -9.31e-03  1.01e-04  4.05e-03  1.56e-03     8.7
               *** Restarting incremental Fock matrix formation ***
    6    -767.2935383692058622    -3.85e-05  5.00e-05  1.65e-03  5.89e-04    16.0
    7    -767.2935478423123641    -9.47e-06  3.28e-05  1.01e-03  2.03e-04    13.4
    8    -767.2935501512877181    -2.31e-06  1.20e-05  3.91e-04  1.10e-04    12.5
    9    -767.2935505860757530    -4.35e-07  2.37e-06  6.27e-05  2.25e-05    11.6
                  *** Gradient check signals convergence ***

               *****************************************************
               *                     SUCCESS                       *
               *           SCF CONVERGED AFTER   9 CYCLES          *
               *****************************************************


------------------
NL GRID GENERATION
------------------

General Integration Accuracy     IntAcc      ... 4.004
Radial Grid Type                 RadialGrid  ... OptM3 with GC (2021)
Angular Grid (max. ang.)         AngularGrid ... 2 (Lebedev-110)
Angular grid pruning method      GridPruning ... 4 (adaptive)
Weight generation scheme         WeightScheme... mBecke (2022)
Basis function cutoff            BFCut       ... 1.0000e-10
Integration weight cutoff        WCut        ... 1.0000e-14
Partially contracted basis set               ... off
Rotationally invariant grid construction     ... off
Angular grids for H and He will be reduced by one unit

Total number of grid points                  ...    21165
Total number of batches                      ...      337
Average number of points per batch           ...       62
Average number of grid points per atom       ...     1628
Final grid set up in    0.2 sec

-------------------------------------------------------------------------------
                    post-SCF DFT-NL dispersion correction                      
-------------------------------------------------------------------------------

SCF Energy:     -767.293550586 
NL    Energy:      0.256486839 
SC+NL Energy:   -767.037063747 
NL done in  :              2.0 sec
-------------------------------------------------------------------------------
Recomputing exchange energy using gridx3       ... done (   28.553 sec)
Old exchange energy                            :    -20.137640928 Eh
New exchange energy                            :    -20.137620824 Eh
Exchange energy change after final integration :      0.000020105 Eh
Total energy after final integration           :   -767.037043642 Eh
             **** ENERGY FILE WAS UPDATED (sp_gas.en.tmp) ****

----------------
TOTAL SCF ENERGY
----------------

Total Energy       :       -767.03704364237205 Eh          -20872.13908 eV

Components:
Nuclear Repulsion  :        404.63937929639104 Eh           11010.79729 eV
Electronic Energy  :      -1171.93292988246685 Eh          -31889.91627 eV
One Electron Energy:      -1853.86640465146570 Eh          -50446.26951 eV
Two Electron Energy:        681.93347476899885 Eh           18556.35324 eV

Virial components:
Potential Energy   :      -1532.18545123829927 Eh          -41692.88575 eV
Kinetic Energy     :        765.14840759592721 Eh           20820.74668 eV
Virial Ratio       :          2.00246832644190

DFT components:
N(Alpha)           :       33.000006323054 electrons
N(Beta)            :       33.000006323054 electrons
N(Total)           :       66.000012646108 electrons
E(X)               :      -48.333583145182 Eh       
E(C)               :       -2.949154488445 Eh       
NL Energy, E(C,NL) :        0.256486839076 Eh       
E(XC)              :      -51.026250794551 Eh       

---------------
SCF CONVERGENCE
---------------

  Last Energy change         ...    4.3479e-07  Tolerance :   1.0000e-07
  Last MAX-Density change    ...    6.2651e-05  Tolerance :   1.0000e-05
  Last RMS-Density change    ...    2.3739e-06  Tolerance :   1.0000e-06
  Last DIIS Error            ...    1.5576e-03  Tolerance :   1.0000e-07
  Last Orbital Gradient      ...    2.2550e-05  Tolerance :   1.0000e-04
  Last Orbital Rotation      ...    5.0939e-05  Tolerance :   1.0000e-04


----------------
ORBITAL ENERGIES
----------------

  NO   OCC          E(Eh)            E(eV) 
   0   2.0000    -107.139240     -2915.4069 
   1   2.0000     -21.717020      -590.9502 
   2   2.0000     -12.131913      -330.1261 
   3   2.0000     -12.114202      -329.6442 
   4   2.0000     -12.068862      -328.4104 
   5   2.0000     -12.068056      -328.3885 
   6   2.0000     -12.065955      -328.3313 
   7   2.0000     -12.059003      -328.1422 
   8   2.0000     -11.292134      -307.2746 
   9   2.0000      -9.083773      -247.1820 
  10   2.0000      -9.081043      -247.1077 
  11   2.0000      -9.080913      -247.1042 
  12   2.0000      -1.733468       -47.1701 
  13   2.0000      -1.430523       -38.9265 
  14   2.0000      -1.379881       -37.5485 
  15   2.0000      -1.296022       -35.2666 
  16   2.0000      -1.280489       -34.8439 
  17   2.0000      -1.173458       -31.9314 
  18   2.0000      -1.126490       -30.6533 
  19   2.0000      -1.080478       -29.4013 
  20   2.0000      -1.021744       -27.8031 
  21   2.0000      -0.968708       -26.3599 
  22   2.0000      -0.962481       -26.1904 
  23   2.0000      -0.957089       -26.0437 
  24   2.0000      -0.920725       -25.0542 
  25   2.0000      -0.901905       -24.5421 
  26   2.0000      -0.852485       -23.1973 
  27   2.0000      -0.835195       -22.7268 
  28   2.0000      -0.820316       -22.3219 
  29   2.0000      -0.785017       -21.3614 
  30   2.0000      -0.769805       -20.9475 
  31   2.0000      -0.658026       -17.9058 
  32   2.0000      -0.650897       -17.7118 
  33   0.0000      -0.268558        -7.3078 
  34   0.0000      -0.265102        -7.2138 
  35   0.0000      -0.257836        -7.0161 
  36   0.0000      -0.142030        -3.8648 
  37   0.0000      -0.088454        -2.4069 
  38   0.0000      -0.077509        -2.1091 
  39   0.0000      -0.015282        -0.4158 
  40   0.0000      -0.011092        -0.3018 
  41   0.0000       0.003284         0.0893 
  42   0.0000       0.025760         0.7010 
  43   0.0000       0.071228         1.9382 
*Only the first 10 virtual orbitals were printed.

                    ********************************
                    * MULLIKEN POPULATION ANALYSIS *
                    ********************************

-----------------------
MULLIKEN ATOMIC CHARGES
-----------------------
   0 C :   -0.124122
   1 C :   -0.141725
   2 C :   -0.149321
   3 C :    0.055746
   4 C :    0.207423
   5 C :   -0.195416
   6 O :   -0.371383
   7 Cl:   -0.088405
   8 H :    0.124178
   9 H :    0.122154
  10 H :    0.133300
  11 H :    0.110673
  12 H :    0.316897
Sum of atomic charges:    0.0000000

--------------------------------
MULLIKEN REDUCED ORBITAL CHARGES
--------------------------------
  0 C s       :     3.169850  s :     3.169850
      pz      :     0.952118  p :     2.858935
      px      :     0.977988
      py      :     0.928828
      dz2     :     0.004234  d :     0.087749
      dxz     :     0.005631
      dyz     :     0.026556
      dx2y2   :     0.029661
      dxy     :     0.021667
      f0      :     0.001654  f :     0.007588
      f+1     :     0.000710
      f-1     :     0.000617
      f+2     :     0.000219
      f-2     :     0.001233
      f+3     :     0.001092
      f-3     :     0.002064

  1 C s       :     3.172581  s :     3.172581
      pz      :     0.998488  p :     2.876814
      px      :     0.924458
      py      :     0.953868
      dz2     :     0.004694  d :     0.084887
      dxz     :     0.017223
      dyz     :     0.010543
      dx2y2   :     0.024085
      dxy     :     0.028342
      f0      :     0.001647  f :     0.007442
      f+1     :     0.000651
      f-1     :     0.000694
      f+2     :     0.001006
      f-2     :     0.000294
      f+3     :     0.001130
      f-3     :     0.002021

  2 C s       :     3.190434  s :     3.190434
      pz      :     0.955466  p :     2.857566
      px      :     0.959895
      py      :     0.942205
      dz2     :     0.005203  d :     0.093653
      dxz     :     0.021765
      dyz     :     0.010336
      dx2y2   :     0.022630
      dxy     :     0.033720
      f0      :     0.001674  f :     0.007668
      f+1     :     0.000671
      f-1     :     0.000699
      f+2     :     0.000831
      f-2     :     0.000642
      f+3     :     0.001179
      f-3     :     0.001972

  3 C s       :     3.159521  s :     3.159521
      pz      :     1.037589  p :     2.612424
      px      :     0.763934
      py      :     0.810902
      dz2     :     0.006944  d :     0.161502
      dxz     :     0.028682
      dyz     :     0.024361
      dx2y2   :     0.048238
      dxy     :     0.053277
      f0      :     0.002099  f :     0.010807
      f+1     :     0.001076
      f-1     :     0.000755
      f+2     :     0.001007
      f-2     :     0.001071
      f+3     :     0.001601
      f-3     :     0.003197

  4 C s       :     3.024258  s :     3.024258
      pz      :     0.915287  p :     2.567260
      px      :     0.894788
      py      :     0.757185
      dz2     :     0.006090  d :     0.185349
      dxz     :     0.031102
      dyz     :     0.043872
      dx2y2   :     0.057362
      dxy     :     0.046923
      f0      :     0.002630  f :     0.015710
      f+1     :     0.000969
      f-1     :     0.001133
      f+2     :     0.001192
      f-2     :     0.002546
      f+3     :     0.002054
      f-3     :     0.005187

  5 C s       :     3.199926  s :     3.199926
      pz      :     1.048916  p :     2.911658
      px      :     0.891581
      py      :     0.971161
      dz2     :     0.007104  d :     0.076497
      dxz     :     0.019109
      dyz     :     0.007403
      dx2y2   :     0.026242
      dxy     :     0.016639
      f0      :     0.001668  f :     0.007334
      f+1     :     0.000665
      f-1     :     0.000686
      f+2     :     0.000682
      f-2     :     0.000594
      f+3     :     0.001138
      f-3     :     0.001902

  6 O s       :     3.754410  s :     3.754410
      pz      :     1.829366  p :     4.582287
      px      :     1.536964
      py      :     1.215958
      dz2     :     0.004560  d :     0.032964
      dxz     :     0.004284
      dyz     :     0.002604
      dx2y2   :     0.004850
      dxy     :     0.016667
      f0      :     0.000237  f :     0.001721
      f+1     :     0.000232
      f-1     :     0.000453
      f+2     :     0.000031
      f-2     :     0.000108
      f+3     :     0.000491
      f-3     :     0.000169

  7 Cls       :     5.869629  s :     5.869629
      pz      :     3.933472  p :    11.155927
      px      :     3.258474
      py      :     3.963981
      dz2     :     0.007637  d :     0.057431
      dxz     :     0.016605
      dyz     :     0.000218
      dx2y2   :     0.023628
      dxy     :     0.009343
      f0      :     0.000539  f :     0.005418
      f+1     :     0.001061
      f-1     :     0.000079
      f+2     :     0.000834
      f-2     :     0.000035
      f+3     :     0.001800
      f-3     :     0.001070

  8 H s       :     0.853767  s :     0.853767
      pz      :     0.004463  p :     0.022055
      px      :     0.014005
      py      :     0.003586

  9 H s       :     0.855591  s :     0.855591
      pz      :     0.004790  p :     0.022255
      px      :     0.006837
      py      :     0.010629

 10 H s       :     0.844501  s :     0.844501
      pz      :     0.004360  p :     0.022199
      px      :     0.005597
      py      :     0.012242

 11 H s       :     0.867071  s :     0.867071
      pz      :     0.004991  p :     0.022255
      px      :     0.005386
      py      :     0.011878

 12 H s       :     0.636813  s :     0.636813
      pz      :     0.015929  p :     0.046291
      px      :     0.013009
      py      :     0.017353


------------------------
MULLIKEN OVERLAP CHARGES
------------------------
B(  0-C ,  1-C ) :   0.9982 B(  0-C ,  3-C ) :  -0.0961 B(  0-C ,  5-C ) :   0.8146 
B(  0-C ,  8-H ) :   0.8326 B(  0-C ,  9-H ) :  -0.1026 B(  1-C ,  2-C ) :   0.9248 
B(  1-C ,  3-C ) :   0.0540 B(  1-C ,  4-C ) :  -0.1634 B(  1-C ,  8-H ) :  -0.0828 
B(  1-C ,  9-H ) :   0.8608 B(  1-C , 10-H ) :  -0.1083 B(  2-C ,  3-C ) :   0.7600 
B(  2-C ,  4-C ) :   0.0748 B(  2-C ,  5-C ) :  -0.1709 B(  2-C ,  7-Cl) :  -0.0717 
B(  2-C ,  9-H ) :  -0.0975 B(  2-C , 10-H ) :   0.8714 B(  3-C ,  4-C ) :   0.5686 
B(  3-C ,  5-C ) :  -0.1080 B(  3-C ,  6-O ) :  -0.1575 B(  3-C ,  7-Cl) :   0.6345 
B(  3-C , 10-H ) :  -0.1320 B(  4-C ,  5-C ) :   0.9765 B(  4-C ,  6-O ) :   0.8391 
B(  4-C ,  7-Cl) :  -0.1153 B(  4-C , 11-H ) :  -0.1001 B(  4-C , 12-H ) :  -0.0861 
B(  5-C ,  6-O ) :  -0.1663 B(  5-C ,  8-H ) :  -0.0700 B(  5-C , 11-H ) :   0.8136 
B(  6-O , 12-H ) :   0.6025 


                     *******************************
                     * LOEWDIN POPULATION ANALYSIS *
                     *******************************

----------------------
LOEWDIN ATOMIC CHARGES
----------------------
   0 C :   -0.136546
   1 C :   -0.151313
   2 C :   -0.135894
   3 C :   -0.393200
   4 C :   -0.273963
   5 C :   -0.140747
   6 O :    0.083147
   7 Cl:    0.378851
   8 H :    0.144771
   9 H :    0.143449
  10 H :    0.148981
  11 H :    0.142195
  12 H :    0.190269

-------------------------------
LOEWDIN REDUCED ORBITAL CHARGES
-------------------------------
  0 C s       :     2.762527  s :     2.762527
      pz      :     0.876133  p :     2.937031
      px      :     0.991207
      py      :     1.069691
      dz2     :     0.024898  d :     0.393330
      dxz     :     0.013371
      dyz     :     0.089454
      dx2y2   :     0.161729
      dxy     :     0.103878
      f0      :     0.003161  f :     0.043658
      f+1     :     0.003168
      f-1     :     0.004310
      f+2     :     0.001523
      f-2     :     0.008351
      f+3     :     0.008255
      f-3     :     0.014890

  1 C s       :     2.761161  s :     2.761161
      pz      :     0.910888  p :     2.964172
      px      :     1.037933
      py      :     1.015351
      dz2     :     0.025130  d :     0.382816
      dxz     :     0.057164
      dyz     :     0.033243
      dx2y2   :     0.110573
      dxy     :     0.156706
      f0      :     0.003118  f :     0.043164
      f+1     :     0.003981
      f-1     :     0.003594
      f+2     :     0.006960
      f-2     :     0.002023
      f+3     :     0.008344
      f-3     :     0.015145

  2 C s       :     2.765036  s :     2.765036
      pz      :     0.875586  p :     2.938395
      px      :     1.063951
      py      :     0.998858
      dz2     :     0.026016  d :     0.388761
      dxz     :     0.073898
      dyz     :     0.029037
      dx2y2   :     0.116300
      dxy     :     0.143510
      f0      :     0.003320  f :     0.043703
      f+1     :     0.004158
      f-1     :     0.003512
      f+2     :     0.005690
      f-2     :     0.004689
      f+3     :     0.008498
      f-3     :     0.013836

  3 C s       :     2.775604  s :     2.775604
      pz      :     0.951425  p :     2.975806
      px      :     0.942582
      py      :     1.081799
      dz2     :     0.041112  d :     0.581027
      dxz     :     0.087117
      dyz     :     0.075437
      dx2y2   :     0.206909
      dxy     :     0.170452
      f0      :     0.004458  f :     0.060763
      f+1     :     0.005115
      f-1     :     0.004675
      f+2     :     0.006495
      f-2     :     0.007411
      f+3     :     0.011366
      f-3     :     0.021242

  4 C s       :     2.719580  s :     2.719580
      pz      :     0.852887  p :     2.777427
      px      :     1.014170
      py      :     0.910370
      dz2     :     0.045024  d :     0.681188
      dxz     :     0.103344
      dyz     :     0.123575
      dx2y2   :     0.184701
      dxy     :     0.224544
      f0      :     0.007155  f :     0.095768
      f+1     :     0.006326
      f-1     :     0.007362
      f+2     :     0.008985
      f-2     :     0.016770
      f+3     :     0.016280
      f-3     :     0.032889

  5 C s       :     2.759306  s :     2.759306
      pz      :     0.938090  p :     2.967847
      px      :     1.024512
      py      :     1.005245
      dz2     :     0.026523  d :     0.371096
      dxz     :     0.065566
      dyz     :     0.023324
      dx2y2   :     0.134509
      dxy     :     0.121175
      f0      :     0.003152  f :     0.042497
      f+1     :     0.004342
      f-1     :     0.003471
      f+2     :     0.005231
      f-2     :     0.004006
      f+3     :     0.008249
      f-3     :     0.014046

  6 O s       :     3.326946  s :     3.326946
      pz      :     1.715198  p :     4.513734
      px      :     1.554226
      py      :     1.244309
      dz2     :     0.008511  d :     0.071335
      dxz     :     0.005746
      dyz     :     0.008630
      dx2y2   :     0.015451
      dxy     :     0.032997
      f0      :     0.000400  f :     0.004838
      f+1     :     0.000317
      f-1     :     0.000836
      f+2     :     0.000052
      f-2     :     0.000553
      f+3     :     0.001522
      f-3     :     0.001157

  7 Cls       :     5.549572  s :     5.549572
      pz      :     3.859813  p :    10.965955
      px      :     3.251090
      py      :     3.855052
      dz2     :     0.011665  d :     0.094538
      dxz     :     0.028015
      dyz     :     0.000250
      dx2y2   :     0.036734
      dxy     :     0.017875
      f0      :     0.001170  f :     0.011083
      f+1     :     0.001859
      f-1     :     0.000172
      f+2     :     0.001936
      f-2     :     0.000052
      f+3     :     0.003295
      f-3     :     0.002599

  8 H s       :     0.797154  s :     0.797154
      pz      :     0.012925  p :     0.058076
      px      :     0.034354
      py      :     0.010797

  9 H s       :     0.797822  s :     0.797822
      pz      :     0.013837  p :     0.058729
      px      :     0.018078
      py      :     0.026814

 10 H s       :     0.792181  s :     0.792181
      pz      :     0.012835  p :     0.058838
      px      :     0.015239
      py      :     0.030765

 11 H s       :     0.799138  s :     0.799138
      pz      :     0.014600  p :     0.058668
      px      :     0.014815
      py      :     0.029253

 12 H s       :     0.659934  s :     0.659934
      pz      :     0.041951  p :     0.149797
      px      :     0.052498
      py      :     0.055348


---------------------------------
LOEWDIN BOND ORDERS (THRESH 0.050000)
---------------------------------
B(  0-C ,  1-C ) :   1.5781 B(  0-C ,  2-C ) :   0.2456 B(  0-C ,  3-C ) :   0.1051 
B(  0-C ,  4-C ) :   0.2406 B(  0-C ,  5-C ) :   1.5903 B(  0-C ,  8-H ) :   0.8287 
B(  0-C ,  9-H ) :   0.0951 B(  0-C , 11-H ) :   0.0942 B(  1-C ,  2-C ) :   1.5775 
B(  1-C ,  3-C ) :   0.2444 B(  1-C ,  4-C ) :   0.1002 B(  1-C ,  5-C ) :   0.2416 
B(  1-C ,  8-H ) :   0.0947 B(  1-C ,  9-H ) :   0.8302 B(  1-C , 10-H ) :   0.0945 
B(  2-C ,  3-C ) :   1.5576 B(  2-C ,  4-C ) :   0.2325 B(  2-C ,  5-C ) :   0.1074 
B(  2-C ,  7-Cl) :   0.1658 B(  2-C ,  9-H ) :   0.0972 B(  2-C , 10-H ) :   0.8229 
B(  3-C ,  4-C ) :   1.4454 B(  3-C ,  5-C ) :   0.2306 B(  3-C ,  6-O ) :   0.1452 
B(  3-C ,  7-Cl) :   1.5974 B(  3-C , 10-H ) :   0.0983 B(  4-C ,  5-C ) :   1.4941 
B(  4-C ,  6-O ) :   1.6519 B(  4-C ,  7-Cl) :   0.1574 B(  4-C , 11-H ) :   0.0982 
B(  4-C , 12-H ) :   0.1066 B(  5-C ,  6-O ) :   0.1474 B(  5-C ,  8-H ) :   0.0982 
B(  5-C , 11-H ) :   0.8228 B(  6-O , 12-H ) :   0.9882 

------------------------------------------
LOEWDIN REDUCED ORBITAL POPULATIONS PER MO
-------------------------------------------
THRESHOLD FOR PRINTING IS 0.1%%
                      0         1         2         3         4         5   
                 -107.13924 -21.71702 -12.13191 -12.11420 -12.06886 -12.06806
                   2.00000   2.00000   2.00000   2.00000   2.00000   2.00000
                  --------  --------  --------  --------  --------  --------
 0 C  s               0.0       0.0       0.0       0.0       0.7      63.3
 1 C  s               0.0       0.0       0.0       0.0       0.9       0.9
 1 C  dx2y2           0.0       0.0       0.0       0.0       0.2       0.0
 2 C  s               0.0       0.0       0.0       0.1      96.5       1.2
 2 C  dxy             0.0       0.0       0.0       0.2       0.0       0.0
 3 C  s               0.0       0.0       0.4      98.6       0.1       0.0
 3 C  dxy             0.0       0.0       0.1       0.0       0.2       0.0
 4 C  s               0.0       0.0      98.5       0.4       0.0       0.0
 4 C  dxy             0.0       0.1       0.0       0.1       0.0       0.0
 5 C  s               0.0       0.0       0.0       0.0       0.7      33.5
 5 C  dx2y2           0.0       0.0       0.2       0.0       0.0       0.0
 5 C  dxy             0.0       0.0       0.0       0.0       0.0       0.1
 6 O  s               0.0      99.8       0.0       0.0       0.0       0.0
 7 Cl s             100.0       0.0       0.0       0.0       0.0       0.0

                      6         7         8         9        10        11   
                 -12.06596 -12.05900 -11.29213  -9.08377  -9.08104  -9.08091
                   2.00000   2.00000   2.00000   2.00000   2.00000   2.00000
                  --------  --------  --------  --------  --------  --------
 0 C  s              33.3       1.6       0.0       0.0       0.0       0.0
 0 C  dxy             0.1       0.1       0.0       0.0       0.0       0.0
 1 C  s               1.0      96.2       0.0       0.0       0.0       0.0
 2 C  s               0.1       1.1       0.0       0.0       0.0       0.0
 2 C  dx2y2           0.0       0.2       0.0       0.0       0.0       0.0
 4 C  dx2y2           0.1       0.0       0.0       0.0       0.0       0.0
 5 C  s              64.6       0.1       0.0       0.0       0.0       0.0
 7 Cl s               0.0       0.0      99.8       0.0       0.0       0.0
 7 Cl pz              0.0       0.0       0.0       0.0     100.0       0.0
 7 Cl px              0.0       0.0       0.0      99.3       0.0       0.7
 7 Cl py              0.0       0.0       0.0       0.7       0.0      99.3

                     12        13        14        15        16        17   
                  -1.73347  -1.43052  -1.37988  -1.29602  -1.28049  -1.17346
                   2.00000   2.00000   2.00000   2.00000   2.00000   2.00000
                  --------  --------  --------  --------  --------  --------
 0 C  s               0.0       2.3      10.2       0.5      14.5       0.6
 0 C  px              0.0       1.2       2.3       0.0       0.5       0.3
 0 C  py              0.0       0.0       0.0       8.0       0.4       8.3
 0 C  dz2             0.0       0.1       0.5       0.0       0.2       0.0
 0 C  dx2y2           0.0       0.0       0.1       0.1       0.4       0.1
 0 C  dxy             0.0       0.0       0.0       1.9       0.1       0.7
 0 C  f+3             0.0       0.0       0.1       0.0       0.1       0.0
 1 C  s               0.0       3.0       7.8      13.2       1.4       5.6
 1 C  px              0.0       1.0       0.2       1.8       4.9       2.1
 1 C  py              0.0       0.6       2.1       0.2       2.9       0.2
 1 C  dz2             0.0       0.2       0.4       0.2       0.0       0.0
 1 C  dx2y2           0.0       0.0       0.0       0.6       1.5       0.1
 1 C  dxy             0.0       0.0       0.1       0.1       0.4       0.2
 1 C  f+3             0.0       0.0       0.1       0.1       0.0       0.0
 2 C  s               0.0       7.0       3.5      11.7       5.8       1.7
 2 C  px              0.0       0.5       3.1       2.5       1.8       5.2
 2 C  py              0.1       3.0       0.5       0.3       1.3       0.6
 2 C  dz2             0.0       0.4       0.2       0.2       0.1       0.0
 2 C  dx2y2           0.0       0.0       0.0       1.0       0.6       0.3
 2 C  dxy             0.0       0.4       0.2       0.0       0.7       0.2
 3 C  s               0.4      20.5       0.1       0.0       8.7       1.0
 3 C  px              0.0       1.9      14.9       0.0       5.0       0.7
 3 C  py              1.4       0.0       0.1       9.9       0.0       6.1
 3 C  dz2             0.1       1.4       0.0       0.0       0.0       0.0
 3 C  dx2y2           0.3       1.0       1.2       0.1       2.1       0.1
 3 C  dxy             0.0       0.0       0.0       2.1       0.2       0.0
 3 C  f+1             0.0       0.0       0.1       0.0       0.0       0.0
 3 C  f+3             0.0       0.3       0.0       0.0       0.0       0.0
 3 C  f-3             0.0       0.0       0.0       0.0       0.0       0.1
 4 C  s               7.5       6.0       3.7      11.5       2.3       1.5
 4 C  px              3.6       0.1       4.8       1.8       3.6      10.4
 4 C  py              7.3       4.8       0.4       0.1       2.9       1.3
 4 C  dz2             1.2       0.3       0.1       0.0       0.0       0.1
 4 C  dx2y2           0.4       0.0       0.1       0.9       1.3       0.1
 4 C  dxy             3.1       0.7       0.0       0.4       0.3       0.3
 4 C  f-1             0.2       0.0       0.0       0.0       0.0       0.0
 4 C  f+3             0.5       0.0       0.0       0.1       0.0       0.0
 4 C  f-3             0.0       0.0       0.0       0.0       0.1       0.0
 5 C  s               0.4       3.0       9.4       8.0       6.3       4.7
 5 C  px              1.3       0.6       0.1       3.0       4.2       0.0
 5 C  py              0.1       0.9       2.2       0.4       1.4       0.4
 5 C  dz2             0.1       0.1       0.5       0.1       0.1       0.0
 5 C  dx2y2           0.2       0.0       0.0       1.0       0.4       0.0
 5 C  dxy             0.1       0.0       0.1       0.0       1.1       0.1
 6 O  s              56.2       0.6       0.3       1.5       0.1       0.1
 6 O  px              1.3       0.1       0.3       1.3       0.0       0.0
 6 O  py              0.1       1.3       0.4       6.3       2.9      31.4
 6 O  dxy             0.0       0.0       0.0       0.3       0.1       0.6
 7 Cl s               0.0      32.3      25.5       0.0      10.3       0.1
 7 Cl px              0.0       1.1       0.1       0.0       1.8       0.2
 7 Cl py              0.0       0.0       0.0       0.1       0.0       0.1
 7 Cl dx2y2           0.0       0.2       0.0       0.0       0.2       0.0
 8 H  s               0.0       0.3       1.2       0.1       2.6       0.2
 8 H  px              0.0       0.0       0.1       0.0       0.3       0.0
 9 H  s               0.0       0.3       0.9       2.1       0.2       1.8
 9 H  px              0.0       0.0       0.0       0.1       0.0       0.0
 9 H  py              0.0       0.0       0.1       0.1       0.1       0.2
10 H  s               0.0       1.0       0.3       1.9       0.9       0.6
10 H  py              0.0       0.1       0.0       0.1       0.1       0.1
11 H  s               0.1       0.3       1.1       1.3       1.2       1.5
11 H  py              0.0       0.0       0.1       0.1       0.1       0.1
12 H  s              10.7       0.3       0.2       1.7       0.7       8.4
12 H  px              0.8       0.0       0.0       0.2       0.0       0.5
12 H  py              2.1       0.0       0.0       0.1       0.0       0.1

                     18        19        20        21        22        23   
                  -1.12649  -1.08048  -1.02174  -0.96871  -0.96248  -0.95709
                   2.00000   2.00000   2.00000   2.00000   2.00000   2.00000
                  --------  --------  --------  --------  --------  --------
 0 C  s               6.2       1.1       1.2       0.3       0.0       0.3
 0 C  px              1.2       0.5       2.6       4.0       0.0       0.1
 0 C  py              0.0      10.1       4.0       1.4       0.0      11.2
 0 C  dx2y2           0.0       0.0       0.0       0.7       0.0       0.3
 0 C  dxy             0.0       0.1       0.1       0.0       0.0       0.2
 1 C  s               1.6       3.1       0.1       1.4       0.0       0.5
 1 C  pz              0.0       0.0       0.0       0.0       0.1       0.0
 1 C  px              5.9       1.5       5.8       0.9       0.0      11.2
 1 C  py              5.8       0.1       2.2      13.7       0.0       0.5
 1 C  dx2y2           0.4       0.1       0.0       0.0       0.0       0.1
 1 C  dxy             0.0       0.1       0.1       0.0       0.0       0.1
 2 C  s               3.0       3.8       0.0       0.2       0.0       0.2
 2 C  px              4.8       5.2       7.0       0.5       0.0       6.7
 2 C  py              4.3       0.6       0.9       6.9       0.0       1.1
 2 C  dx2y2           0.5       0.0       0.0       0.2       0.0       0.2
 2 C  dxy             0.1       0.0       0.0       0.6       0.0       0.1
 3 C  s               6.3       0.1       0.6       1.1       0.0       0.1
 3 C  pz              0.0       0.0       0.0       0.0       0.8       0.0
 3 C  px              0.0       0.3       0.5       8.2       0.0       0.4
 3 C  py              1.5      11.5       5.3       3.4       0.0       7.6
 3 C  dz2             0.1       0.0       0.0       0.0       0.0       0.0
 3 C  dyz             0.0       0.0       0.0       0.0       0.4       0.0
 3 C  dx2y2           0.2       0.6       0.1       0.0       0.0       0.0
 3 C  dxy             0.0       1.1       0.0       0.1       0.0       0.2
 4 C  s               0.7       1.8       0.1       0.1       0.0       0.1
 4 C  pz              0.0       0.0       0.0       0.0      12.4       0.0
 4 C  px              7.9       2.1       0.4       1.3       0.0       6.9
 4 C  py             10.3       6.9       5.7       0.5       0.0       1.5
 4 C  dxz             0.0       0.0       0.0       0.0       1.3       0.0
 4 C  dyz             0.0       0.0       0.0       0.0       2.5       0.0
 4 C  dx2y2           0.3       0.4       2.1       0.1       0.0       1.6
 4 C  dxy             0.0       1.4       0.4       2.6       0.0       0.0
 4 C  f0              0.0       0.0       0.0       0.0       0.3       0.0
 4 C  f-2             0.0       0.0       0.0       0.0       0.5       0.0
 4 C  f-3             0.0       0.2       0.2       0.1       0.0       0.5
 5 C  s               1.8       1.3       1.2       1.0       0.0       0.6
 5 C  pz              0.0       0.0       0.0       0.0       0.6       0.0
 5 C  px              6.6      11.4       0.5       3.5       0.0       7.7
 5 C  py              5.4       0.1       0.4       5.8       0.0       6.2
 5 C  dxz             0.0       0.0       0.0       0.0       0.5       0.0
 5 C  dx2y2           0.2       0.1       0.0       0.0       0.0       0.1
 5 C  dxy             0.0       0.8       0.9       0.1       0.0       0.4
 6 O  s               0.9       0.4       4.2       0.1       0.0       1.8
 6 O  pz              0.0       0.0       0.0       0.0      78.1       0.0
 6 O  px              6.3       1.2      44.5       0.2       0.0      19.7
 6 O  py              1.4      16.3       0.0       0.9       0.0       0.4
 6 O  dz2             0.0       0.0       0.1       0.0       0.0       0.1
 6 O  dx2y2           0.2       0.0       0.0       0.1       0.0       0.3
 6 O  dxy             0.1       0.2       0.0       0.0       0.0       0.1
 7 Cl s               3.0       0.1       0.4       2.7       0.0       0.4
 7 Cl pz              0.0       0.0       0.0       0.0       0.2       0.0
 7 Cl px              3.6       0.2       1.8      16.5       0.0       2.8
 7 Cl py              0.1       0.1       0.4       0.8       0.0       0.5
 7 Cl dz2             0.1       0.0       0.0       0.1       0.0       0.0
 7 Cl dx2y2           0.3       0.0       0.2       0.4       0.0       0.0
 7 Cl dxy             0.1       0.1       0.1       0.1       0.0       0.1
 8 H  s               2.8       1.1       1.9       1.3       0.0       0.2
 8 H  px              0.3       0.1       0.1       0.0       0.0       0.0
 8 H  py              0.0       0.1       0.1       0.0       0.0       0.2
 9 H  s               0.8       1.7       0.0       8.2       0.0       1.8
 9 H  px              0.2       0.0       0.1       0.2       0.0       0.0
 9 H  py              0.0       0.1       0.0       0.2       0.0       0.2
10 H  s               1.6       3.2       0.0       1.3       0.0       0.0
10 H  px              0.2       0.0       0.1       0.1       0.0       0.1
10 H  py              0.1       0.3       0.0       0.0       0.0       0.0
11 H  s               1.3       1.6       0.3       6.4       0.0       1.6
11 H  px              0.2       0.0       0.0       0.0       0.0       0.2
11 H  py              0.0       0.2       0.0       0.2       0.0       0.0
12 H  s               0.1       5.5       2.0       0.6       0.0       2.3
12 H  pz              0.0       0.0       0.0       0.0       1.8       0.0
12 H  px              0.2       0.1       0.5       0.0       0.0       0.1
12 H  py              0.0       0.0       0.2       0.0       0.0       0.1

                     24        25        26        27        28        29   
                  -0.92073  -0.90190  -0.85249  -0.83520  -0.82032  -0.78502
                   2.00000   2.00000   2.00000   2.00000   2.00000   2.00000
                  --------  --------  --------  --------  --------  --------
 0 C  s               1.1       0.3       0.3       0.1       0.0       0.0
 0 C  pz              0.0       0.0       0.0       0.0       2.5       0.0
 0 C  px             17.0       4.7       5.2       9.9       0.0       0.0
 0 C  py              0.0       0.2       5.2       4.4       0.0       0.2
 0 C  dxz             0.0       0.0       0.0       0.0       0.1       0.0
 0 C  dx2y2           1.1       0.2       1.8       3.2       0.0       0.0
 0 C  dxy             0.1       0.4       1.2       0.0       0.0       0.1
 0 C  f-3             0.1       0.2       0.2       0.0       0.0       0.0
 1 C  s               0.7       0.2       0.6       0.0       0.0       0.0
 1 C  pz              0.0       0.0       0.0       0.0       2.8       0.0
 1 C  px              2.6       0.3       8.9       4.3       0.0       0.3
 1 C  py              2.4       0.3      13.7       5.7       0.0       0.4
 1 C  dz2             0.2       0.0       0.1       0.0       0.0       0.0
 1 C  dxz             0.0       0.0       0.0       0.0       0.1       0.0
 1 C  dx2y2           0.2       0.6       1.3       0.4       0.0       0.0
 1 C  dxy             0.7       0.7       4.6       0.3       0.0       0.2
 1 C  f-3             0.0       0.4       0.0       0.2       0.0       0.0
 2 C  s               1.2       0.3       0.4       0.2       0.0       0.1
 2 C  pz              0.0       0.0       0.0       0.0       7.4       0.0
 2 C  px              3.8       1.4       4.0       5.4       0.0       1.1
 2 C  py              7.1      15.7       1.3       5.7       0.0       0.6
 2 C  dyz             0.0       0.0       0.0       0.0       0.5       0.0
 2 C  dx2y2           1.6       0.0       0.0       1.1       0.0       0.0
 2 C  dxy             0.2       0.9       1.4       2.0       0.0       0.1
 2 C  f-3             0.2       0.1       0.2       0.0       0.0       0.0
 3 C  s               0.4       0.3       0.2       0.0       0.0       0.0
 3 C  pz              0.0       0.0       0.0       0.0      21.0       0.0
 3 C  px              5.1       7.6       1.7       0.5       0.0       0.0
 3 C  py              0.9       0.2       1.6       2.4       0.0       1.9
 3 C  dz2             0.0       0.1       0.1       0.0       0.0       0.0
 3 C  dxz             0.0       0.0       0.0       0.0       0.8       0.0
 3 C  dx2y2           1.9       0.0       0.4       1.8       0.0       0.1
 3 C  dxy             0.3       0.6       0.2       0.1       0.0       3.4
 3 C  f0              0.0       0.0       0.0       0.0       0.2       0.0
 3 C  f-3             0.2       0.2       0.0       0.1       0.0       0.3
 4 C  s               1.2       0.2       0.1       0.0       0.0       0.1
 4 C  pz              0.0       0.0       0.0       0.0       3.8       0.0
 4 C  px              0.5       1.9       0.3       4.1       0.0       0.9
 4 C  py              1.6       0.2       0.2       1.3       0.0       0.6
 4 C  dz2             0.1       0.0       0.0       0.0       0.0       0.0
 4 C  dyz             0.0       0.0       0.0       0.0       1.4       0.0
 4 C  dx2y2           0.0       1.2       0.2       0.2       0.0       0.0
 4 C  dxy             0.0       0.4       1.0       0.4       0.0       0.0
 4 C  f-2             0.0       0.0       0.0       0.0       0.1       0.0
 4 C  f-3             0.1       0.4       0.0       0.0       0.0       0.0
 5 C  s               0.4       0.5       0.2       0.2       0.0       0.0
 5 C  pz              0.0       0.0       0.0       0.0       3.0       0.0
 5 C  px              2.0       4.6       1.7       3.9       0.0       0.2
 5 C  py              0.2      15.5       7.0       3.8       0.0       0.3
 5 C  dx2y2           1.5       0.2       0.0       2.6       0.0       0.0
 5 C  dxy             0.0       0.8       0.1       1.1       0.0       0.1
 5 C  f-3             0.2       0.0       0.0       0.1       0.0       0.0
 6 O  s               0.1       0.0       0.0       0.1       0.0       0.0
 6 O  pz              0.0       0.0       0.0       0.0       2.7       0.0
 6 O  px              1.1       0.1       0.8       0.4       0.0       0.1
 6 O  py              0.4       0.0       0.2       0.1       0.0       0.1
 6 O  dx2y2           0.0       0.0       0.0       0.1       0.0       0.0
 7 Cl s               1.5       1.0       0.2       0.2       0.0       0.0
 7 Cl pz              0.0       0.0       0.0       0.0      52.2       0.0
 7 Cl px             15.4      10.6       2.8       5.0       0.0       0.6
 7 Cl py              0.1       0.0       2.8       1.4       0.0      86.2
 7 Cl dxz             0.0       0.0       0.0       0.0       0.3       0.0
 7 Cl dx2y2           0.3       0.1       0.0       0.0       0.0       0.0
 7 Cl dxy             0.0       0.0       0.1       0.0       0.0       0.1
 8 H  s              12.4       1.6       4.9       9.4       0.0       0.0
 8 H  px              0.4       0.0       0.1       0.2       0.0       0.0
 9 H  s               1.1       0.3      19.5       0.5       0.0       0.5
 9 H  px              0.0       0.0       0.1       0.1       0.0       0.0
 9 H  py              0.0       0.0       0.3       0.0       0.0       0.0
10 H  s               9.0      10.2       0.5       8.9       0.0       0.2
10 H  py              0.3       0.2       0.0       0.2       0.0       0.0
11 H  s               0.9      13.1       1.8       7.0       0.0       0.4
11 H  px              0.0       0.0       0.1       0.0       0.0       0.0
11 H  py              0.0       0.3       0.0       0.1       0.0       0.0
12 H  s               0.0       0.1       0.1       0.4       0.0       0.0

                     30        31        32        33        34        35   
                  -0.76981  -0.65803  -0.65090  -0.26856  -0.26510  -0.25784
                   2.00000   2.00000   2.00000   0.00000   0.00000   0.00000
                  --------  --------  --------  --------  --------  --------
 0 C  s               0.0       0.0       0.0       0.1       0.0       0.0
 0 C  pz             14.4      15.5      11.4       0.0      19.4       3.5
 0 C  dxz             0.5       0.1       0.0       0.0       0.8       0.4
 0 C  dyz             0.0       1.8       2.7       0.0       0.7       4.3
 0 C  f0              0.1       0.0       0.0       0.0       0.1       0.0
 0 C  f-2             0.0       0.2       0.2       0.0       0.0       0.4
 1 C  s               0.0       0.0       0.0       0.3       0.0       0.0
 1 C  pz             12.4       1.3      28.9       0.0      11.8       8.6
 1 C  px              0.0       0.0       0.0       0.6       0.0       0.0
 1 C  dxz             0.1       2.6       0.1       0.0       0.6       3.7
 1 C  dyz             0.4       1.1       0.1       0.0       2.3       0.2
 1 C  dxy             0.0       0.0       0.0       0.3       0.0       0.0
 1 C  f+2             0.0       0.3       0.0       0.0       0.1       0.4
 1 C  f-2             0.0       0.0       0.0       0.0       0.1       0.0
 2 C  pz              8.9      24.6       2.9       0.0       1.0      24.0
 2 C  py              0.0       0.0       0.0       0.4       0.0       0.0
 2 C  dxz             0.3       0.2       3.1       0.0       3.6       0.6
 2 C  dyz             0.1       0.2       0.6       0.0       1.3       0.8
 2 C  dx2y2           0.0       0.0       0.0       2.0       0.0       0.0
 2 C  dxy             0.0       0.0       0.0       1.5       0.0       0.0
 2 C  f0              0.1       0.0       0.0       0.0       0.0       0.2
 2 C  f+2             0.0       0.0       0.3       0.0       0.2       0.1
 2 C  f-2             0.0       0.1       0.1       0.0       0.2       0.0
 2 C  f-3             0.0       0.0       0.0       0.4       0.0       0.0
 3 C  s               0.0       0.0       0.0       7.4       0.0       0.0
 3 C  pz              2.4      12.8      10.6       0.0      19.9       3.4
 3 C  px              0.0       0.0       0.0      20.9       0.0       0.0
 3 C  py              0.0       0.0       0.0       0.3       0.0       0.0
 3 C  dz2             0.0       0.0       0.0       2.0       0.0       0.0
 3 C  dxz             2.8       0.6       0.1       0.0       0.7       0.3
 3 C  dyz             0.0       1.4       1.9       0.0       0.9       5.1
 3 C  dx2y2           0.0       0.0       0.0       3.1       0.0       0.0
 3 C  dxy             0.0       0.0       0.0       0.2       0.0       0.0
 3 C  f0              0.0       0.0       0.0       0.0       0.2       0.0
 3 C  f+1             0.0       0.0       0.0       0.1       0.0       0.0
 3 C  f+2             0.1       0.0       0.1       0.0       0.1       0.0
 3 C  f-2             0.0       0.2       0.2       0.0       0.0       0.5
 3 C  f+3             0.0       0.0       0.0       0.6       0.0       0.0
 4 C  s               0.0       0.0       0.0       0.1       0.0       0.0
 4 C  pz              6.1       0.7      19.6       0.0      17.0      10.7
 4 C  px              0.0       0.0       0.0       0.3       0.0       0.0
 4 C  py              0.0       0.0       0.0       2.4       0.0       0.0
 4 C  dxz             0.9       2.8       0.2       0.0       1.0       2.7
 4 C  dyz             0.4       0.8       1.1       0.0       1.2       0.7
 4 C  dx2y2           0.0       0.0       0.0       0.8       0.0       0.0
 4 C  dxy             0.0       0.0       0.0       3.5       0.0       0.0
 4 C  f0              0.0       0.0       0.0       0.0       0.3       0.2
 4 C  f+2             0.0       0.4       0.0       0.0       0.2       0.3
 4 C  f-2             0.0       0.0       0.2       0.0       0.0       0.0
 4 C  f-3             0.0       0.0       0.0       0.3       0.0       0.0
 5 C  s               0.0       0.0       0.0       0.1       0.0       0.0
 5 C  pz             14.1      25.2       4.0       0.0       0.5      22.0
 5 C  px              0.0       0.0       0.0       0.4       0.0       0.0
 5 C  dxz             0.0       0.3       2.4       0.0       4.4       0.7
 5 C  dyz             0.4       0.2       0.5       0.0       1.2       0.9
 5 C  dxy             0.0       0.0       0.0       1.3       0.0       0.0
 5 C  f0              0.1       0.0       0.0       0.0       0.0       0.2
 5 C  f+2             0.0       0.0       0.2       0.0       0.3       0.1
 5 C  f-2             0.0       0.1       0.1       0.0       0.2       0.0
 6 O  s               0.0       0.0       0.0       0.4       0.0       0.0
 6 O  pz              1.7       0.1       3.1       0.0       3.5       2.1
 6 O  px              0.0       0.0       0.0       1.1       0.0       0.0
 6 O  py              0.0       0.0       0.0       1.0       0.0       0.0
 6 O  dxz             0.0       0.0       0.2       0.0       0.3       0.1
 6 O  dyz             0.1       0.0       0.3       0.0       0.4       0.3
 6 O  dxy             0.0       0.0       0.0       0.1       0.0       0.0
 7 Cl s               0.0       0.0       0.0       3.7       0.0       0.0
 7 Cl pz             32.5       4.8       3.2       0.0       2.1       0.3
 7 Cl px              0.0       0.0       0.0      28.4       0.0       0.0
 7 Cl py              0.0       0.0       0.0       0.4       0.0       0.0
 7 Cl dz2             0.0       0.0       0.0       3.0       0.0       0.0
 7 Cl dxz             0.1       0.5       0.5       0.0       1.8       0.2
 7 Cl dx2y2           0.0       0.0       0.0       9.2       0.0       0.0
 7 Cl dxy             0.0       0.0       0.0       0.3       0.0       0.0
 7 Cl f+1             0.0       0.0       0.0       0.3       0.0       0.0
 7 Cl f+3             0.0       0.0       0.0       0.5       0.0       0.0
 8 H  pz              0.2       0.3       0.2       0.0       0.6       0.1
 9 H  s               0.0       0.0       0.0       0.2       0.0       0.0
 9 H  pz              0.1       0.0       0.5       0.0       0.4       0.3
10 H  s               0.0       0.0       0.0       0.5       0.0       0.0
10 H  pz              0.1       0.4       0.0       0.0       0.0       0.7
11 H  s               0.0       0.0       0.0       0.4       0.0       0.0
11 H  pz              0.2       0.5       0.1       0.0       0.0       0.7
12 H  pz              0.1       0.0       0.1       0.0       0.1       0.1

[...]
 5 C  f+3             0.0       0.3       0.0       0.0       0.1       0.0
 5 C  f-3             0.0       0.1       2.4       0.0       1.7       0.0
 6 O  s               0.0       0.1       4.7       0.0       0.8       0.0
 6 O  pz              1.2       0.0       0.0       0.1       0.0       1.1
 6 O  px              0.0       0.0       3.5       0.0       0.0       0.0
 6 O  py              0.0       7.2       0.4       0.0       0.1       0.0
 6 O  dz2             0.0       1.6      22.2       0.0      10.2       0.0
 6 O  dxz             7.4       0.0       0.0      68.0       0.0      21.7
 6 O  dyz            15.1       0.0       0.0      26.8       0.0      56.6
 6 O  dx2y2           0.0       0.7       0.3       0.0      14.1       0.0
 6 O  dxy             0.0      10.0       0.3       0.0      12.5       0.0
 6 O  f0             23.4       0.0       0.0       2.3       0.0       4.7
 6 O  f+1             0.0       1.8       3.3       0.0       0.2       0.0
 6 O  f-1             0.0      44.3       3.4       0.0       0.1       0.0
 6 O  f+2             3.2       0.0       0.0       0.3       0.0       0.7
 6 O  f-2            34.9       0.0       0.0       0.7       0.0      10.9
 6 O  f+3             0.0       0.4      17.2       0.0      11.3       0.0
 6 O  f-3             0.0       0.0      20.9       0.0      17.9       0.0
11 H  s               0.0       0.2       0.1       0.0       0.0       0.0
12 H  s               0.0       2.2       2.4       0.0       1.1       0.0
12 H  pz              0.0       0.0       0.0       0.5       0.0       0.0
12 H  px              0.0       0.3       1.1       0.0       0.0       0.0
12 H  py              0.0       0.4       0.1       0.0       1.2       0.0

                    270       271       272       273       274       275   
                   6.35689   6.52623   6.85260   9.61944   9.70058  10.25034
                   0.00000   0.00000   0.00000   0.00000   0.00000   0.00000
                  --------  --------  --------  --------  --------  --------
 3 C  s               0.1       0.3       0.0       0.0       0.0       1.1
 3 C  px              0.1       0.2       0.1       0.0       0.0       0.4
 3 C  py              0.1       0.1       0.0       0.0       0.0       0.0
 3 C  dxy             0.1       0.1       0.2       0.0       0.1       0.0
 3 C  f-3             0.0       0.0       0.1       0.0       0.0       0.0
 4 C  s               0.9       1.2       0.7       0.0       0.0       0.1
 4 C  px              0.3       1.1       0.1       0.0       0.0       0.1
 4 C  py              0.8       0.8       0.1       0.0       0.0       0.0
 4 C  dz2             0.1       0.1       0.1       0.0       0.0       0.0
 4 C  dx2y2           0.7       0.6       1.6       0.0       0.0       0.0
 4 C  dxy             2.3       0.7       0.4       0.0       0.0       0.0
 4 C  f-1             0.1       0.2       0.0       0.0       0.0       0.0
 4 C  f+3             0.0       0.9       0.0       0.0       0.0       0.0
 4 C  f-3             0.4       0.1       2.5       0.0       0.0       0.0
 5 C  s               0.1       0.4       0.4       0.0       0.0       0.0
 5 C  px              0.0       0.0       0.4       0.0       0.0       0.0
 5 C  py              0.3       0.0       0.1       0.0       0.0       0.0
 5 C  dxy             0.3       0.0       0.2       0.0       0.0       0.0
 5 C  f+3             0.0       0.1       0.2       0.0       0.0       0.0
 6 O  s               2.2       1.0       2.8       0.0       0.0       0.0
 6 O  px              3.4       0.1       0.1       0.0       0.0       0.0
 6 O  py              0.6       2.8       0.8       0.0       0.0       0.0
 6 O  dz2            43.0       6.9       5.8       0.0       0.0       0.0
 6 O  dx2y2          27.0      27.2      24.7       0.0       0.0       0.0
 6 O  dxy             0.5      47.1      22.6       0.0       0.0       0.0
 6 O  f+1             7.6       0.0       1.2       0.0       0.0       0.0
 6 O  f-1             0.1       4.2       1.9       0.0       0.0       0.0
 6 O  f+3             3.9       2.4      15.7       0.0       0.0       0.0
 6 O  f-3             2.0       0.4       9.6       0.0       0.0       0.0
 7 Cl s               0.0       0.0       0.0       0.0       0.0       0.9
 7 Cl pz              0.0       0.0       0.0      99.9       0.0       0.0
 7 Cl px              0.0       0.0       0.0       0.0       0.6      96.3
 7 Cl py              0.0       0.0       0.0       0.0      98.8       0.6
 7 Cl dx2y2           0.0       0.0       0.0       0.0       0.0       0.1
12 H  s               2.1       0.4       6.5       0.0       0.0       0.0
12 H  px              0.0       0.1       0.2       0.0       0.0       0.0
12 H  py              0.2       0.0       0.3       0.0       0.0       0.0

                    276       277       278       279       280       281   
                  20.34714  20.98695  21.04254  21.10696  21.21883  21.60516
                   0.00000   0.00000   0.00000   0.00000   0.00000   0.00000
                  --------  --------  --------  --------  --------  --------
 0 C  s              16.9      32.8      22.0       3.7      15.8       6.7
 0 C  py              0.0       0.2       0.4       0.0       0.0       0.0
 0 C  dxy             0.0       0.0       0.1       0.0       0.0       0.0
 1 C  s              15.9      30.7      31.9       0.6      11.2       7.7
 1 C  px              0.0       0.2       0.2       0.0       0.0       0.0
 1 C  py              0.1       0.1       0.1       0.0       0.0       0.0
 2 C  s              16.2      10.0      17.9      15.5      31.5       6.7
 2 C  px              0.0       0.4       0.1       0.1       0.0       0.0
 3 C  s              21.5      16.3       0.1      45.0       0.5      14.6
 3 C  px              0.0       0.0       0.0       0.2       0.0       0.0
 3 C  py              0.0       0.0       0.3       0.0       0.5       0.1
 3 C  dx2y2           0.0       0.0       0.0       0.0       0.0       0.1
 3 C  dxy             0.0       0.0       0.1       0.0       0.2       0.0
 4 C  s               8.8       3.4       0.1       2.2      31.1      51.9
 4 C  px              0.1       0.0       0.2       0.2       0.1       0.0
 4 C  py              0.2       0.1       0.1       0.1       0.0       0.0
 4 C  dx2y2           0.0       0.0       0.1       0.2       0.1       0.0
 5 C  s              19.0       4.3      25.5      31.0       7.9      10.5
 5 C  px              0.0       0.3       0.0       0.0       0.1       0.0
 5 C  py              0.1       0.1       0.0       0.0       0.0       0.0
 6 O  s               0.2       0.0       0.0       0.0       0.1       0.2
 6 O  py              0.1       0.0       0.0       0.0       0.1       0.2
 7 Cl s               0.0       0.2       0.0       0.3       0.0       0.1

                    282       283   
                  24.70768  41.55193
                   0.00000   0.00000
                  --------  --------
 2 C  px              0.2       0.0
 3 C  s               0.5       0.0
 3 C  px              0.7       0.0
 3 C  dx2y2           0.6       0.0
 4 C  s               0.1       0.0
 4 C  px              0.2       0.0
 4 C  dxy             0.1       0.0
 6 O  s               0.0      99.7
 7 Cl s              96.5       0.0
 7 Cl px              0.4       0.0


                      *****************************
                      * MAYER POPULATION ANALYSIS *
                      *****************************

  NA   - Mulliken gross atomic population
  ZA   - Total nuclear charge
  QA   - Mulliken gross atomic charge
  VA   - Mayer's total valence
  BVA  - Mayer's bonded valence
  FA   - Mayer's free valence

  ATOM       NA         ZA         QA         VA         BVA        FA
  0 C      6.1241     6.0000    -0.1241     3.9948     3.9948     0.0000
  1 C      6.1417     6.0000    -0.1417     3.9652     3.9652     0.0000
  2 C      6.1493     6.0000    -0.1493     3.9884     3.9884     0.0000
  3 C      5.9443     6.0000     0.0557     3.9013     3.9013    -0.0000
  4 C      5.7926     6.0000     0.2074     4.0386     4.0386     0.0000
  5 C      6.1954     6.0000    -0.1954     3.8935     3.8935     0.0000
  6 O      8.3714     8.0000    -0.3714     2.1100     2.1100     0.0000
  7 Cl    17.0884    17.0000    -0.0884     1.2135     1.2135     0.0000
  8 H      0.8758     1.0000     0.1242     0.9698     0.9698    -0.0000
  9 H      0.8778     1.0000     0.1222     0.9700     0.9700    -0.0000
 10 H      0.8667     1.0000     0.1333     0.9800     0.9800    -0.0000
 11 H      0.8893     1.0000     0.1107     0.9794     0.9794     0.0000
 12 H      0.6831     1.0000     0.3169     0.9165     0.9165     0.0000

  Mayer bond orders larger than 0.100000
B(  0-C ,  1-C ) :   1.4400 B(  0-C ,  5-C ) :   1.4408 B(  0-C ,  8-H ) :   0.9633 
B(  1-C ,  2-C ) :   1.4275 B(  1-C ,  9-H ) :   0.9710 B(  2-C ,  3-C ) :   1.4342 
B(  2-C , 10-H ) :   0.9612 B(  3-C ,  4-C ) :   1.3203 B(  3-C ,  7-Cl) :   1.0513 
B(  4-C ,  5-C ) :   1.3764 B(  4-C ,  6-O ) :   1.2189 B(  5-C , 11-H ) :   0.9551 
B(  6-O , 12-H ) :   0.8840 

-------
TIMINGS
-------

Total SCF time: 0 days 0 hours 2 min 15 sec 

Total time                  ....     135.247 sec
Sum of individual times     ....     132.172 sec  ( 97.7%)

SCF preparation             ....       0.372 sec  (  0.3%)
Fock matrix formation       ....     130.277 sec  ( 96.3%)
  Startup                   ....       0.058 sec  (  0.0% of F)
  Split-RI-J                ....       5.416 sec  (  4.2% of F)
  Chain of spheres X        ....     110.449 sec  ( 84.8% of F)
  XC integration            ....      15.581 sec  ( 12.0% of F)
    XC Preparation          ....       0.000 sec  (  0.0% of XC)
    Basis function eval.    ....       3.059 sec  ( 19.6% of XC)
    Density eval.           ....       2.611 sec  ( 16.8% of XC)
    XC-Functional eval.     ....       2.862 sec  ( 18.4% of XC)
    XC-Potential eval.      ....       4.826 sec  ( 31.0% of XC)
Diagonalization             ....       0.000 sec  (  0.0%)
Density matrix formation    ....       0.398 sec  (  0.3%)
Total Energy calculation    ....       0.049 sec  (  0.0%)
Population analysis         ....       0.180 sec  (  0.1%)
Orbital Transformation      ....       0.083 sec  (  0.1%)
Orbital Orthonormalization  ....       0.000 sec  (  0.0%)
DIIS solution               ....       0.411 sec  (  0.3%)
  MO trafo                  ....       0.000 sec  (  0.0 % of DIIS)
  Orb grad                  ....       0.000 sec  (  0.0 % of DIIS)
  Energy W gradient         ....       0.000 sec  (  0.0 % of DIIS)
  DIIS error                ....       0.014 sec  (  3.3 % of DIIS)
  DIIS work                 ....       0.344 sec  ( 83.6 % of DIIS)
  Form Q                    ....       0.000 sec  (  0.0 % of DIIS)
  Form QpQm                 ....       0.000 sec  (  0.0 % of DIIS)
  Exp/Cayley                ....       0.000 sec  (  0.0 % of DIIS)
  Orb update                ....       0.000 sec  (  0.0 % of DIIS)
  Wake-sleep                ....       0.013 sec  (  3.1 % of DIIS)
SOSCF solution              ....       0.219 sec  (  0.2%)
  MO trafo                  ....       0.086 sec  ( 39.4 % of SOSCF)
  Orb grad                  ....       0.003 sec  (  1.6 % of SOSCF)
  Rot update                ....       0.065 sec  ( 29.8 % of SOSCF)
  Step                      ....       0.064 sec  ( 29.1 % of SOSCF)
Grid generation             ....       0.183 sec  (  0.1%)
Finished LeanSCF after 135.7 sec

Maximum memory used throughout the entire LEANSCF-calculation: 36.1 MB
------------------   -----------------
gCP correction             0.006764371
------------------   -----------------

-------------------------   --------------------
FINAL SINGLE POINT ENERGY      -767.030279271372
-------------------------   --------------------


------------------------------------------------------------------------------
                              ORCA PROPERTY CALCULATIONS
------------------------------------------------------------------------------

GBWName                                 ... sp_gas.gbw
Number of atoms                         ...     13
Number of basis functions               ...    284
Max core memory                         ...   1024 MB

Electric properties:
Dipole moment                           ... YES
Quadrupole moment                       ...  NO
Static polarizability (Dipole/Dipole)   ...  NO
Static polarizability (Dipole/Quad.)    ...  NO
Static polarizability (Quad./Quad.)     ...  NO
Static polarizability (Velocity)        ...  NO

Atomic electric properties:
Dipole moment                           ...  NO
Quadrupole moment                       ...  NO
Static polarizability                   ...  NO

Choice of electric origin               ... Center of mass
Position of electric origin             ...     0.012050    -0.001977    -0.000005

General magnetic properties:
Magnetizability                         ...  NO

EPR properties:
g-Tensor (aka g-matrix)                 ...  NO
Zero-Field splitting spin-orbit         ...  NO
Zero-field splitting spin-spin          ...  NO
Hyperfine couplings                     ...  NO (   0 nuclei)
Quadrupole couplings                    ...  NO (   0 nuclei)
Contact density                         ...  NO (   0 nuclei)

NMR properties:
Chemical shifts                         ...  NO (   0 nuclei)
Spin-rotation constants                 ...  NO (   0 nuclei)
Spin-spin couplings                     ...  NO (   0 nuclei,    0 pairs)

Choice of magnetic origin               ... GIAO
Position of magnetic origin             ...     0.000000     0.000000     0.000000

Properties with geometric perturbations:
SCF Hessian                             ...  NO
IR spectrum                             ...  NO
VCD spectrum                            ...  NO
X-ray spectroscopy properties:
SCF XES/XAS/RIXS spectra                ...  NO


-------------
DIPOLE MOMENT
-------------

Method             : SCF
Type of density    : Electron Density
Multiplicity       :   1
Irrep              :   0
Energy             :  -767.0370436423720548 Eh
Relativity type    : 
Basis              : AO
                                X                 Y                 Z
Electronic contribution:      9.181815730      -0.431934820      -0.000088594
Nuclear contribution   :    -10.286243236       0.825475434       0.000103156
                        -----------------------------------------
Total Dipole Moment    :     -1.104427506       0.393540615       0.000014562
                        -----------------------------------------
Magnitude (a.u.)       :      1.172448008
Magnitude (Debye)      :      2.980126003



--------------------
Rotational spectrum 
--------------------
 
Rotational constants in cm-1:             0.098196             0.051058             0.033592 
Rotational constants in MHz :          2943.827276          1530.685992          1007.053707 

Dipole components along the rotational axes: 
x,y,z [a.u.] :     1.102569     0.398717     0.000000 
x,y,z [Debye]:     2.802508     1.013459     0.000001 

 

Dipole moment calculation done in   0.0 sec 

Maximum memory used throughout the entire PROP-calculation: 23.0 MB

--------------------------------
SUGGESTED CITATIONS FOR THIS RUN
--------------------------------

Below you find a list of papers that are relevant to this ORCA run
We neither can nor want to force you to cite these papers, but we appreciate if you do
You receive ORCA, which is the product of decades of hard work by many enthusiastic individuals, for free
The only thing we kindly ask in return is that you cite our papers,
We deeply appreciate it, if you show your appreciation for ORCA by not just citing the generic ORCA reference.

Please note that relegating all ORCA citations to the supporting information does *not* help us.
SI sections are not indexed - citations you put there will not count into any citation statistics
But we need these citations in order to attract the funding resources that allow us to do what we are doing

Therefore, if you are a happy ORCA user, please consider citing a few of the papers listed below in the main body of your paper

In addition to the list printed below, the program has created the file sp_gas.bibtex that contains the list in bibtex format
You can import this file easily into all common literature databanks and citation aid programs


List of essential papers. We consider these as the minimum necessary citations

  1. Neese,F.
     Software update: the ORCA program system, version 5.0
     WIRES Comput. Molec. Sci., 2022 12(1)e1606
     doi.org/10.1002/wcms.1606

List of papers to cite with high priority. The work reported in these papers was absolutely
necessary for this run to complete.
Our perspective: the developers of density functionals and basis sets usually get cited in chemistry papers
Good! But without the algorithms to do something with them, the functionals or basis sets would not do anything.
Hence, in our opinion, the algorithm design and method developments papers are equally worthy of getting cited

  1. Neese,F.
     An improvement of the resolution of the identity approximation for the formation of the Coulomb matrix
     J. Comp. Chem., 2003 24(14)1740-1747
     doi.org/10.1002/jcc.10318
  2. Neese,F.; Wennmohs,F.; Hansen,A.; Becker,U.
     Efficient, approximate and parallel Hartree-Fock and hybrid DFT calculations. A 'chain-of-spheres' algorithm for the Hartree-Fock exchange
     Chem. Phys., 2009 356(1-3)98-109
     doi.org/10.1016/j.chemphys.2008.10.036
  3. Helmich-Paris,B.; de Souza,B.; Neese,F.; Izsák,R.
     An improved chain of spheres for exchange algorithm
     J. Chem. Phys., 2021 155 104109
     doi.org/doi: 10.1063/5.0058766.
  4. Neese,F.
     The SHARK Integral Generation and Digestion System
     J. Comp. Chem., 2022  1-16
     doi.org/10.1002/jcc.26942

List of suggested additional citations. These are papers that are important in the 'surrounding' of 
of this run, or papers that preceded the highly important papers. If you like your results we are grateful for a citation.

  1. Izsak,R.; Neese,F.
     An overlap fitted chain of spheres exchange method
     J. Chem. Phys., 2011 135 144105
     doi.org/10.1063/1.3646921
  2. Izsak,R.; Hansen,A.; Neese,F.
     The resolution of identity and chain of spheres approximations for the LPNO-CCSD singles Fock term
     Molec. Phys., 2012 110 2413-2417
     doi.org/10.1080/00268976.2012.687466
  3. Neese,F.
     The ORCA program system
     WIRES Comput. Molec. Sci., 2012 2(1)73-78
     doi.org/10.1002/wcms.81
  4. Izsak,R.; Neese,F.; Klopper,W.
     Robust fitting techniques in the chain of spheres approximation to the Fock exchange: The role of the complementary space
     J. Chem. Phys., 2013 139 
     doi.org/10.1063/1.4819264
  5. Neese,F.
     Software update: the ORCA program system, version 4.0
     WIRES Comput. Molec. Sci., 2018 8(1)1-6
     doi.org/10.1002/wcms.1327
  6. Neese,F.; Wennmohs,F.; Becker,U.; Riplinger,C.
     The ORCA quantum chemistry program package
     J. Chem. Phys., 2020 152 Art. No. L224108
     doi.org/10.1063/5.0004608

List of optional additional citations

  1. Neese,F.
     Approximate second-order SCF convergence for spin unrestricted wavefunctions
     Chem. Phys. Lett., 2000 325(1-3)93-98
     doi.org/10.1016/s0009-2614(00)00662-x

Timings for individual modules:

Sum of individual times          ...      138.719 sec (=   2.312 min)
Startup calculation              ...        2.556 sec (=   0.043 min)   1.8 %
SCF iterations                   ...      136.041 sec (=   2.267 min)  98.1 %
Property calculations            ...        0.122 sec (=   0.002 min)   0.1 %
                             ****ORCA TERMINATED NORMALLY****
TOTAL RUN TIME: 0 days 0 hours 2 minutes 19 seconds 641 msec
