
                                 *****************
                                 * O   R   C   A *
                                 *****************

                                            #,                                       
                                            ###                                      
                                            ####                                     
                                            #####                                    
                                            ######                                   
                                           ########,                                 
                                     ,,################,,,,,                         
                               ,,#################################,,                 
                          ,,##########################################,,             
                       ,#########################################, ''#####,          
                    ,#############################################,,   '####,        
                  ,##################################################,,,,####,       
                ,###########''''           ''''###############################       
              ,#####''   ,,,,##########,,,,          '''####'''          '####       
            ,##' ,,,,###########################,,,                        '##       
           ' ,,###''''                  '''############,,,                           
         ,,##''                                '''############,,,,        ,,,,,,###''
      ,#''                                            '''#######################'''  
     '                                                          ''''####''''         
             ,#######,   #######,   ,#######,      ##                                
            ,#'     '#,  ##    ##  ,#'     '#,    #''#        ,####,   ,####,        
            ##       ##  ##   ,#'  ##            #'  '#       #'       #'  '#        
            ##       ##  #######   ##           ,######,      #####,   #    #        
            '#,     ,#'  ##    ##  '#,     ,#' ,#      #,     #,   #   #,  ,#        
             '#######'   ##     ##  '#######'  #'      '#     '####' # '####'        



                #########################################################
                #                        -***-                          #
                #          Department of theory and spectroscopy        #
                #                                                       #
                #                      Frank Neese                      #
                #                                                       #
                #     Directorship, Architecture, Infrastructure        #
                #                    SHARK, DRIVERS                     #
                #        Core code/Algorithms in most modules           #
                #                                                       #
                #        Max Planck Institute fuer Kohlenforschung      #
                #                Kaiser Wilhelm Platz 1                 #
                #                 D-45470 Muelheim/Ruhr                 #
                #                      Germany                          #
                #                                                       #
                #                  All rights reserved                  #
                #                        -***-                          #
                #########################################################


                         Program Version 6.0.0  -   RELEASE  -


 With contributions from (in alphabetic order):
   Daniel Aravena         : Magnetic Suceptibility
   Michael Atanasov       : Ab Initio Ligand Field Theory (pilot matlab implementation)
   Alexander A. Auer      : GIAO ZORA, VPT2 properties, NMR spectrum
   Ute Becker             : All parallelization in ORCA, NUMFREQ, NUMCALC
   Giovanni Bistoni       : ED, misc. LED, open-shell LED, HFLD
   Martin Brehm           : Molecular dynamics
   Dmytro Bykov           : pre 5.0 version of the SCF Hessian
   Marcos Casanova-Páez   : Triplet and SCS-CIS(D). UHF-(DLPNO)-IP/EA/STEOM-CCSD. UHF-CVS-IP/STEOM-CCSD
   Vijay G. Chilkuri      : MRCI spin determinant printing, contributions to CSF-ICE
   Pauline Colinet        : FMM embedding
   Dipayan Datta          : RHF DLPNO-CCSD density
   Achintya Kumar Dutta   : EOM-CC, STEOM-CC
   Nicolas Foglia         : Exact transition moments, OPA infrastructure, MCD improvements
   Dmitry Ganyushin       : Spin-Orbit,Spin-Spin,Magnetic field MRCI
   Miquel Garcia          : C-PCM and meta-GGA Hessian, CCSD/C-PCM, Gaussian charge scheme
   Tiago L. C. Gouveia    : GS-ROHF, GS-ROCIS
   Yang Guo               : DLPNO-NEVPT2, F12-NEVPT2, CIM, IAO-localization
   Andreas Hansen         : Spin unrestricted coupled pair/coupled cluster methods
   Ingolf Harden          : AUTO-CI MPn and infrastructure 
   Benjamin Helmich-Paris : MC-RPA, TRAH-(SCF,CASSCF), AVAS, COSX integrals, SCF dyn. polar.
   Lee Huntington         : MR-EOM, pCC
   Robert Izsak           : Overlap fitted RIJCOSX, COSX-SCS-MP3, EOM
   Riya Kayal             : Wick's Theorem for AUTO-CI, AUTO-CI UHF-CCSDT
   Emily Kempfer          : AUTO-CI, RHF CISDT and CCSDT
   Christian Kollmar      : KDIIS, OOCD, Brueckner-CCSD(T), CCSD density, CASPT2, CASPT2-K, improved NEVPT2
   Axel Koslowski         : Symmetry handling
   Simone Kossmann        : Meta GGA functionals, TD-DFT gradient, OOMP2, (MP2 Hessian; deprecated post 5.0)
   Lucas Lang             : DCDCAS
   Marvin Lechner         : AUTO-CI (C++ implementation), FIC-MRCC
   Spencer Leger          : CASSCF response
   Dagmar Lenk            : GEPOL surface, SMD, ORCA-2-JSON
   Dimitrios Liakos       : Extrapolation schemes; Compound Job, initial MDCI parallelization
   Dimitrios Manganas     : Further ROCIS development; embedding schemes. LFT, Crystal Embedding
   Dimitrios Pantazis     : SARC Basis sets
   Anastasios Papadopoulos: AUTO-CI, single reference methods and gradients
   Taras Petrenko         : pre 6.0 DFT Hessian and TD-DFT gradient, (ASA, deprecated), ECA, 1-Electron XAS/XES, NRVS
   Peter Pinski           : DLPNO-MP2, DLPNO-MP2 Gradient
   Christoph Reimann      : Effective Core Potentials
   Marius Retegan         : Local ZFS, SOC
   Christoph Riplinger    : Optimizer, TS searches, QM/MM, DLPNO-CCSD(T), (RO)-DLPNO pert. Triples
   Michael Roemelt        : Original ROCIS implementation
   Masaaki Saitow         : Open-shell DLPNO-CCSD energy and density
   Barbara Sandhoefer     : DKH picture change effects
   Kantharuban Sivalingam : CASSCF convergence/infrastructure, NEVPT2 and variants, FIC-MRCI
   Bernardo de Souza      : ESD, SOC TD-DFT
   Georgi Stoychev        : AutoAux, RI-MP2 NMR, DLPNO-MP2 response, X2C
   Van Anh Tran           : RI-MP2 g-tensors
   Willem Van den Heuvel  : Paramagnetic NMR
   Zikuan Wang            : NOTCH, Electric field optimization 
   Frank Wennmohs         : Technical directorship and infrastructure
   Hang Xu                : AUTO-CI-Response properties 


 We gratefully acknowledge several colleagues who have allowed us to
 interface, adapt or use parts of their codes:
   Stefan Grimme, W. Hujo, H. Kruse, P. Pracht,  : VdW corrections, initial TS optimization,
                  C. Bannwarth, S. Ehlert,         DFT functionals, gCP, sTDA/sTD-DF
                  L. Wittmann, M. Mueller
   Ed Valeev, F. Pavosevic, A. Kumar             : LibInt (2-el integral package), F12 methods
   Garnet Chan, S. Sharma, J. Yang, R. Olivares  : DMRG
   Ulf Ekstrom                                   : XCFun DFT Library
   Mihaly Kallay                                 : mrcc  (arbitrary order and MRCC methods)
   Frank Weinhold                                : gennbo (NPA and NBO analysis)
   Simon Mueller                                 : openCOSMO-RS
   Christopher J. Cramer and Donald G. Truhlar   : smd solvation model
   Lars Goerigk                                  : TD-DFT with DH, B97 family of functionals
   V. Asgeirsson, H. Jonsson                     : NEB implementation
   FAccTs GmbH                                   : IRC, NEB, NEB-TS, DLPNO-Multilevel, CI-OPT
                                                   MM, QMMM, 2- and 3-layer-ONIOM, Crystal-QMMM,
                                                   LR-CPCM, SF, NACMEs, symmetry and pop. for TD-DFT,
                                                   nearIR, NL-DFT gradient (VV10), updates on ESD,
                                                   ML-optimized integration grids, MBIS, APM,
                                                   GOAT, DOCKER, SOLVATOR, interface openCOSMO-RS
   S Lehtola, MJT Oliveira, MAL Marques          : LibXC Library
   Liviu Ungur et al                             : ANISO software


 Your calculation uses the libint2 library for the computation of 2-el integrals
 For citations please refer to: http://libint.valeyev.net

 Your ORCA version has been built with support for libXC version: 6.2.2
 For citations please refer to: https://libxc.gitlab.io

 This ORCA versions uses:
   CBLAS   interface :  Fast vector & matrix operations
   LAPACKE interface :  Fast linear algebra routines
   SCALAPACK package :  Parallel linear algebra routines
   Shared memory     :  Shared parallel matrices
   BLAS/LAPACK       :  OpenBLAS 0.3.27  USE64BITINT DYNAMIC_ARCH NO_AFFINITY SkylakeX SINGLE_THREADED
        Core in use  :  SkylakeX
   Copyright (c) 2011-2014, The OpenBLAS Project


Your calculation utilizes the geometrical counterpoise correction gCP
Please cite in your paper:
H.Kruse, S. Grimme J.Chem.Phys., 136, (2012), 154101 
   

Your calculation utilizes the DFT-NL dispersion correction.
Cite in your paper:
Vydrov, O. A.; Van Voorhis, T. J. Chem. Phys. 2010, 133, 244103
Hujo, W.; Grimme, S. J. Chem. Theory Comput. 2011, 7, 3866 
   

Your calculation utilizes the SMD solvation module
Please cite in your paper:
A.V. Marenich, C.J. Cramer, D.G. Truhlar J. Phys. Chem. B, 113, (2009), 6378 

================================================================================

----- Orbital basis set information -----
Your calculation utilizes the basis: def2-TZVP
   F. Weigend and R. Ahlrichs, Phys. Chem. Chem. Phys. 7, 3297 (2005).

----- AuxJ basis set information -----
Your calculation utilizes the auxiliary basis: def2/J
   F. Weigend, Phys. Chem. Chem. Phys. 8, 1057 (2006).

================================================================================
                                        WARNINGS
                       Please study these warnings very carefully!
================================================================================


================================================================================
                                       INPUT FILE
================================================================================
NAME = sp_solv.inp
|  1> ! wb97x-v def2-tzvp def2/J RIJCOSX DEFGRID2 scfconv7 GCP(DFT/TZ) printgap
|  2> %output
|  3>     printlevel normal
|  4> end
|  5> %cpcm
|  6>     smd true
|  7>     smdsolvent "water"
|  8> end
|  9> * xyz 0 1
| 10> C -2.4183384209203367 -0.10039817032132362 1.8401031028544143e-05
| 11> C -1.8320974839184456 -1.36363177793407 3.7322490359767193e-06
| 12> C -0.4451662671632379 -1.4801179668781477 -3.8115604335284092e-06
| 13> C 0.34139235932224354 -0.33580250005435586 -5.69604910203175e-07
| 14> C -0.23500605148657064 0.9383901278720368 1.0621561949955658e-05
| 15> C -1.6272643959122133 1.0418926803342057 2.329754952153912e-05
| 16> O 0.5828451444384287 2.0331754631175167 3.246599249144431e-06
| 17> Cl 2.092390617010883 -0.485262193399069 -2.9443315965439182e-05
| 18> H -3.4984182754630626 0.0016083302895882128 2.8099435439162005e-05
| 19> H -2.4447095223580204 -2.258286260962124 -6.83984619034069e-06
| 20> H 0.028572920454596834 -2.455569253932996 -1.7722040177587295e-05
| 21> H -2.0757342611148535 2.0315871937107355 3.640824351906088e-05
| 22> H 0.03337004601980737 2.8304873930954533 1.9140361601995105e-05
| 23> *
| 24> 
| 25>                          ****END OF INPUT****
================================================================================

                       ****************************
                       * Single Point Calculation *
                       ****************************

---------------------------------
CARTESIAN COORDINATES (ANGSTROEM)
---------------------------------
  C     -2.418338   -0.100398    0.000018
  C     -1.832097   -1.363632    0.000004
  C     -0.445166   -1.480118   -0.000004
  C      0.341392   -0.335803   -0.000001
  C     -0.235006    0.938390    0.000011
  C     -1.627264    1.041893    0.000023
  O      0.582845    2.033175    0.000003
  Cl     2.092391   -0.485262   -0.000029
  H     -3.498418    0.001608    0.000028
  H     -2.444710   -2.258286   -0.000007
  H      0.028573   -2.455569   -0.000018
  H     -2.075734    2.031587    0.000036
  H      0.033370    2.830487    0.000019

----------------------------
CARTESIAN COORDINATES (A.U.)
----------------------------
  NO LB      ZA    FRAG     MASS         X           Y           Z
   0 C     6.0000    0    12.011   -4.569997   -0.189725    0.000035
   1 C     6.0000    0    12.011   -3.462162   -2.576891    0.000007
   2 C     6.0000    0    12.011   -0.841242   -2.797018   -0.000007
   3 C     6.0000    0    12.011    0.645138   -0.634575   -0.000001
   4 C     6.0000    0    12.011   -0.444097    1.773300    0.000020
   5 C     6.0000    0    12.011   -3.075084    1.968892    0.000044
   6 O     8.0000    0    15.999    1.101418    3.842145    0.000006
   7 Cl   17.0000    0    35.453    3.954045   -0.917013   -0.000056
   8 H     1.0000    0     1.008   -6.611052    0.003039    0.000053
   9 H     1.0000    0     1.008   -4.619831   -4.267543   -0.000013
  10 H     1.0000    0     1.008    0.053995   -4.640353   -0.000033
  11 H     1.0000    0     1.008   -3.922569    3.839143    0.000069
  12 H     1.0000    0     1.008    0.063060    5.348846    0.000036

--------------------------------
INTERNAL COORDINATES (ANGSTROEM)
--------------------------------
 C      0   0   0     0.000000000000     0.00000000     0.00000000
 C      1   0   0     1.392636917446     0.00000000     0.00000000
 C      2   1   0     1.391814367034   119.69596805     0.00000000
 C      3   2   1     1.388572058095   119.70222631     0.00000000
 C      4   3   2     1.398499903886   121.15659170     0.00000000
 C      1   2   3     1.389469863134   120.40107124     0.00000000
 O      5   4   3     1.366541440645   118.89843875   180.00048540
 Cl     4   3   2     1.757365385797   119.62438037   180.00072517
 H      1   2   3     1.084886085472   120.29026224   180.00022733
 H      2   1   3     1.084297078182   120.70366884   180.00030466
 H      3   2   1     1.084404920450   120.70497899   180.00015275
 H      6   1   2     1.086563596838   120.91895673   180.00010368
 H      7   5   4     0.968312551669   108.66566656   180.00040272

---------------------------
INTERNAL COORDINATES (A.U.)
---------------------------
 C      0   0   0     0.000000000000     0.00000000     0.00000000
 C      1   0   0     2.631702377962     0.00000000     0.00000000
 C      2   1   0     2.630147982951   119.69596805     0.00000000
 C      3   2   1     2.624020907014   119.70222631     0.00000000
 C      4   3   2     2.642781816660   121.15659170     0.00000000
 C      1   2   3     2.625717512660   120.40107124     0.00000000
 O      5   4   3     2.582389073472   118.89843875   180.00048540
 Cl     4   3   2     3.320939296389   119.62438037   180.00072517
 H      1   2   3     2.050137588043   120.29026224   180.00022733
 H      2   1   3     2.049024525576   120.70366884   180.00030466
 H      3   2   1     2.049228317926   120.70497899   180.00015275
 H      6   1   2     2.053307625113   120.91895673   180.00010368
 H      7   5   4     1.829845534693   108.66566656   180.00040272

---------------------
BASIS SET INFORMATION
---------------------
There are 4 groups of distinct atoms

 Group   1 Type C   : 11s6p2d1f contracted to 5s3p2d1f pattern {62111/411/11/1}
 Group   2 Type O   : 11s6p2d1f contracted to 5s3p2d1f pattern {62111/411/11/1}
 Group   3 Type Cl  : 14s9p3d1f contracted to 5s5p2d1f pattern {73211/51111/21/1}
 Group   4 Type H   : 5s1p contracted to 3s1p pattern {311/1}

Atom   0C    basis set group =>   1
Atom   1C    basis set group =>   1
Atom   2C    basis set group =>   1
Atom   3C    basis set group =>   1
Atom   4C    basis set group =>   1
Atom   5C    basis set group =>   1
Atom   6O    basis set group =>   2
Atom   7Cl   basis set group =>   3
Atom   8H    basis set group =>   4
Atom   9H    basis set group =>   4
Atom  10H    basis set group =>   4
Atom  11H    basis set group =>   4
Atom  12H    basis set group =>   4
---------------------------------
AUXILIARY/J BASIS SET INFORMATION
---------------------------------
There are 4 groups of distinct atoms

 Group   1 Type C   : 12s5p4d2f1g contracted to 6s4p3d1f1g pattern {711111/2111/211/2/1}
 Group   2 Type O   : 12s5p4d2f1g contracted to 6s4p3d1f1g pattern {711111/2111/211/2/1}
 Group   3 Type Cl  : 14s5p5d2f1g contracted to 8s4p3d1f1g pattern {71111111/2111/311/2/1}
 Group   4 Type H   : 5s2p1d contracted to 3s1p1d pattern {311/2/1}

Atom   0C    basis set group =>   1
Atom   1C    basis set group =>   1
Atom   2C    basis set group =>   1
Atom   3C    basis set group =>   1
Atom   4C    basis set group =>   1
Atom   5C    basis set group =>   1
Atom   6O    basis set group =>   2
Atom   7Cl   basis set group =>   3
Atom   8H    basis set group =>   4
Atom   9H    basis set group =>   4
Atom  10H    basis set group =>   4
Atom  11H    basis set group =>   4
Atom  12H    basis set group =>   4

Checking for AutoStart:
The File: sp_solv.gbw exists
Trying to determine its content:
     ... Fine, the file contains calculation information
     ... Fine, the calculation information was read
     ... Fine, the file contains a basis set
     ... Fine, the basis set was read
     ... Fine, the file contains a geometry
     ... Fine, the geometry was read
     ... Fine, the file contains a set of orbitals
     ... Fine, the orbitals can be read
     => possible old guess file was deleted
     => GBW file was renamed to GES file
     => GES file is set as startup file
     => Guess is set to MORead
     ... now leaving AutoStart

------------------------------------------------------------------------------
                             ORCA STARTUP CALCULATIONS
                           -- RI-GTO INTEGRALS CHOSEN --
------------------------------------------------------------------------------
------------------------------------------------------------------------------
                   ___                                                        
                  /   \      - P O W E R E D   B Y -                         
                 /     \                                                     
                 |  |  |   _    _      __       _____    __    __             
                 |  |  |  | |  | |    /  \     |  _  \  |  |  /  |          
                  \  \/   | |  | |   /    \    | | | |  |  | /  /          
                 / \  \   | |__| |  /  /\  \   | |_| |  |  |/  /          
                |  |  |   |  __  | /  /__\  \  |    /   |      \           
                |  |  |   | |  | | |   __   |  |    \   |  |\   \          
                \     /   | |  | | |  |  |  |  | |\  \  |  | \   \       
                 \___/    |_|  |_| |__|  |__|  |_| \__\ |__|  \__/        
                                                                              
                      - O R C A' S   B I G   F R I E N D -                    
                                      &                                       
                       - I N T E G R A L  F E E D E R -                       
                                                                              
 v1 FN, 2020, v2 2021, v3 2022-2024                                           
------------------------------------------------------------------------------


----------------------
SHARK INTEGRAL PACKAGE
----------------------

Number of atoms                             ...     13
Number of basis functions                   ...    284
Number of shells                            ...    110
Maximum angular momentum                    ...      3
Integral batch strategy                     ... SHARK/LIBINT Hybrid
RI-J (if used) integral strategy            ... SPLIT-RIJ (Revised 2003 algorithm where possible)
Printlevel                                  ...      1
Contraction scheme used                     ... SEGMENTED contraction
Prescreening option                         ... SCHWARTZ
   Thresh                                   ... 3.000e-11
   Tcut                                     ... 1.000e-12
   Tpresel                                  ... 1.000e-12 
Coulomb Range Separation                    ... NOT USED
Exchange Range Separation                   ... Long Range
   Mu parameter                             ... 3.000e-01
   Scaling (regular/separated)              ... 1.670e-01 8.330e-01
Multipole approximations                    ... NOT USED
Finite Nucleus Model                        ... NOT USED
CABS basis                                  ... NOT available
Auxiliary Coulomb fitting basis             ... AVAILABLE
   # of basis functions in Aux-J            ...    449
   # of shells in Aux-J                     ...    147
   Maximum angular momentum in Aux-J        ...      4
Auxiliary J/K fitting basis                 ... NOT available
Auxiliary Correlation fitting basis         ... NOT available
Auxiliary 'external' fitting basis          ... NOT available

Checking pre-screening integrals            ... done (  0.0 sec) Dimension = 110
Check shell pair data                       ... done (  0.0 sec)
Shell pair information
Shell pair cut-off parameter TPreSel        ...   1.0e-12
Total number of shell pairs                 ...      6105
Shell pairs after pre-screening             ...      5622
Total number of primitive shell pairs       ...     19708
Primitive shell pairs kept                  ...     13530
          la=0 lb=0:   1338 shell pairs
          la=1 lb=0:   1564 shell pairs
          la=1 lb=1:    469 shell pairs
          la=2 lb=0:    836 shell pairs
          la=2 lb=1:    476 shell pairs
          la=2 lb=2:    132 shell pairs
          la=3 lb=0:    407 shell pairs
          la=3 lb=1:    237 shell pairs
          la=3 lb=2:    127 shell pairs
          la=3 lb=3:     36 shell pairs

Calculating one electron integrals          ... done (  0.0 sec)
Calculating RI/J V-Matrix + Cholesky decomp.... done (  0.1 sec)
Calculating Nuclear repulsion               ... done (  0.0 sec) ENN=    404.639379296391 Eh

Diagonalization of the overlap matrix:
Smallest eigenvalue                        ... 1.004e-05
Time for diagonalization                   ...    0.008 sec
Threshold for overlap eigenvalues          ... 1.000e-07
Number of eigenvalues below threshold      ... 0
Time for construction of square roots      ...    0.018 sec
Total time needed                          ...    0.033 sec

-------------------
DFT GRID GENERATION
-------------------

General Integration Accuracy     IntAcc      ... 4.388
Radial Grid Type                 RadialGrid  ... OptM3 with GC (2021)
Angular Grid (max. ang.)         AngularGrid ... 4 (Lebedev-302)
Angular grid pruning method      GridPruning ... 4 (adaptive)
Weight generation scheme         WeightScheme... mBecke (2022)
Basis function cutoff            BFCut       ... 1.0000e-11
Integration weight cutoff        WCut        ... 1.0000e-14
Partially contracted basis set               ... off
Rotationally invariant grid construction     ... off
Angular grids for H and He will be reduced by one unit

Total number of grid points                  ...    65594
Total number of batches                      ...     1031
Average number of points per batch           ...       63
Average number of grid points per atom       ...     5046

--------------------
COSX GRID GENERATION
--------------------

GRIDX 1
-------
General Integration Accuracy     IntAcc      ... 3.816
Radial Grid Type                 RadialGrid  ... OptM3 with GC (2021)
Angular Grid (max. ang.)         AngularGrid ... 1 (Lebedev-50)
Angular grid pruning method      GridPruning ... 4 (adaptive)
Weight generation scheme         WeightScheme... mBecke (2022)
Basis function cutoff            BFCut       ... 1.0000e-11
Integration weight cutoff        WCut        ... 1.0000e-14
Partially contracted basis set               ... on
Rotationally invariant grid construction     ... off
Angular grids for H and He will be reduced by one unit

Total number of grid points                  ...     9405
Total number of batches                      ...       79
Average number of points per batch           ...      119
Average number of grid points per atom       ...      723
UseSFitting                                  ... on

GRIDX 2
-------
General Integration Accuracy     IntAcc      ... 4.020
Radial Grid Type                 RadialGrid  ... OptM3 with GC (2021)
Angular Grid (max. ang.)         AngularGrid ... 2 (Lebedev-110)
Angular grid pruning method      GridPruning ... 4 (adaptive)
Weight generation scheme         WeightScheme... mBecke (2022)
Basis function cutoff            BFCut       ... 1.0000e-11
Integration weight cutoff        WCut        ... 1.0000e-14
Partially contracted basis set               ... on
Rotationally invariant grid construction     ... off
Angular grids for H and He will be reduced by one unit

Total number of grid points                  ...    18426
Total number of batches                      ...      150
Average number of points per batch           ...      122
Average number of grid points per atom       ...     1417
UseSFitting                                  ... on

GRIDX 3
-------
General Integration Accuracy     IntAcc      ... 4.338
Radial Grid Type                 RadialGrid  ... OptM3 with GC (2021)
Angular Grid (max. ang.)         AngularGrid ... 3 (Lebedev-194)
Angular grid pruning method      GridPruning ... 4 (adaptive)
Weight generation scheme         WeightScheme... mBecke (2022)
Basis function cutoff            BFCut       ... 1.0000e-11
Integration weight cutoff        WCut        ... 1.0000e-14
Partially contracted basis set               ... on
Rotationally invariant grid construction     ... off
Angular grids for H and He will be reduced by one unit

Total number of grid points                  ...    41227
Total number of batches                      ...      330
Average number of points per batch           ...      124
Average number of grid points per atom       ...     3171
UseSFitting                                  ... on
Initializing property integral containers    ... done (  0.0 sec)

SHARK setup successfully completed in   2.3 seconds

Maximum memory used throughout the entire STARTUP-calculation: 40.7 MB
-------------------------------------------------------------------------------
                                 ORCA GUESS
                   Start orbitals & Density for SCF / CASSCF
-------------------------------------------------------------------------------

------------
SCF SETTINGS
------------
Hamiltonian:
 Density Functional     Method          .... DFT(GTOs)
 Exchange Functional    Exchange        .... WB97X-V
 Correlation Functional Correlation     .... WB97X-V
 Gradients option       PostSCFGGA      .... off
 Hybrid DFT is turned on
   Fraction HF Exchange ScalHFX         ....  0.167000
   Scaling of DF-GGA-X  ScalDFX         ....  0.000000
   Scaling of DF-GGA-C  ScalDFC         ....  1.000000
   Scaling of DF-LDA-C  ScalLDAC        ....  1.000000
   Perturbative correction              ....  0.000000
 Long-range corrected/Screened/Range-Separated Hybrid DFT is turned on
   Amount of maximum screened exact exchange              ....  0.833000
   Range separation parameter mu (erf(mu*r12)/r12)        ....  0.300000
   NL short-range parameter             ....  6.000000
   NL long-range parameter              ....  0.010000
 RI-approximation to the Coulomb term is turned on
   Number of AuxJ basis functions       .... 449
   RIJ-COSX (HFX calculated with COS-X)).... on


General Settings:
 Integral files         IntName         .... sp_solv
 Hartree-Fock type      HFTyp           .... RHF
 Total Charge           Charge          ....    0
 Multiplicity           Mult            ....    1
 Number of Electrons    NEL             ....   66
 Basis Dimension        Dim             ....  284
 Nuclear Repulsion      ENuc            ....    404.6393792964 Eh

Convergence Acceleration:
 AO-DIIS                CNVDIIS         .... on
   Start iteration      DIISMaxIt       ....    12
   Startup error        DIISStart       ....  0.200000
   # of expansion vecs  DIISMaxEq       ....     5
   Bias factor          DIISBfac        ....   1.050
   Max. coefficient     DIISMaxC        ....  10.000
 MO-DIIS                CNVKDIIS        .... off
 Trust-Rad. Augm. Hess. CNVTRAH         .... auto
   Auto Start mean grad. ratio tolernc. ....  1.125000
   Auto Start start iteration           ....     1
   Auto Start num. interpolation iter.  ....    10
   Max. Number of Micro iterations      ....    24
   Max. Number of Macro iterations      .... Maxiter - #DIIS iter
   Number of Davidson start vectors     ....     2
   Converg. threshold    (grad. norm)   ....   1.000e-04
   Grad. Scal. Fac. for Micro threshold ....   0.100
   Minimum threshold for Micro iter.    ....   1.000e-02
   NR start threshold (gradient norm)   ....   1.000e-04
   Initial trust radius                 ....   0.400
   Minimum AH scaling param. (alpha)    ....   1.000
   Maximum AH scaling param. (alpha)    .... 1000.000
   Quad. conv. algorithm                .... NR
   White noise on init. David. guess    .... on
   Maximum white noise                  ....   0.010
   Pseudo random numbers                .... off
   Inactive MOs                         .... canonical
   Orbital update algorithm             .... Taylor
   Preconditioner                       .... Diag
   Full preconditioner red. dimension   ....   250
 SOSCF                  CNVSOSCF        .... on
   Start iteration      SOSCFMaxIt      ....   150
   Startup grad/error   SOSCFStart      ....  0.003300
   Hessian update       SOSCFHessUp     .... L-BFGS
 Level Shifting         CNVShift        .... on
   Level shift para.    LevelShift      ....    0.2500
   Turn off err/grad.   ShiftErr        ....    0.0010
 Zerner damping         CNVZerner       .... off
 Static damping         CNVDamp         .... on
   Fraction old density DampFac         ....    0.7000
   Max. Damping (<1)    DampMax         ....    0.9800
   Min. Damping (>=0)   DampMin         ....    0.0000
   Turn off err/grad.   DampErr         ....    0.1000

SCF Procedure:
 Maximum # iterations   MaxIter         ....   125
 SCF integral mode      SCFMode         .... Direct
   Integral package                     .... SHARK and LIBINT hybrid scheme
 Reset frequency        DirectResetFreq ....    20
 Integral Threshold     Thresh          ....  3.000e-11 Eh
 Primitive CutOff       TCut            ....  1.000e-12 Eh

Convergence Tolerance:
 Convergence Check Mode ConvCheckMode   .... Total+1el-Energy
 Convergence forced     ConvForced      .... 0
 Energy Change          TolE            ....  1.000e-07 Eh
 1-El. energy change                    ....  1.000e-04 Eh
 Orbital Gradient       TolG            ....  1.000e-04
 Orbital Rotation angle TolX            ....  1.000e-04
 DIIS Error             TolErr          ....  1.000e-07

---------------------
INITIAL GUESS: MOREAD
---------------------
Guess MOs are being read from file: sp_solv.ges
Input Geometry matches current geometry (good)
Atom 0: N(Shells)= 11 and 9 - projection required
Input basis set needs projection
NBasis(read)= 190
NBasis(calc)= 284
Basis set overlap was calculated
Using GuessMode=FMatrix for the initial guess
C*T matrix was formed
Effective Fockian was calculated
Effective Fockian was diagonalized
Initial density was built
                      ------------------
                      INITIAL GUESS DONE (   0.0 sec)
                      ------------------
             **** ENERGY FILE WAS UPDATED (sp_solv.en.tmp) ****
Finished Guess after   0.3 sec
Maximum memory used throughout the entire GUESS-calculation: 25.2 MB

-------------------------------------------------------------------------------------------
                                      ORCA LEAN-SCF
                              memory conserving SCF solver
-------------------------------------------------------------------------------------------

--------------------
CPCM SOLVATION MODEL
--------------------
CPCM parameters:
  Epsilon                                         ...      78.3550
  Refrac                                          ...       1.3328
  Rsolv                                           ...       1.3000
  Surface type                                    ... GAUSSIAN VDW
  Discretization scheme                           ... Constant charge density
    Threshold for H atoms                         ...       5.0000 (charges/Ang^2)
    Threshold for non-H atoms                     ...       5.0000 (charges/Ang^2)
  Epsilon function type                           ...         CPCM
Solvent:                                          ... WATER
SMD-CDS solvent descriptors:
  Soln                                            ...       1.3328
  Soln25                                          ...       1.3323
  Sola                                            ...       0.0000
  Solb                                            ...       0.0000
  Solg                                            ...       0.0000
  Solc                                            ...       0.0000
  Solh                                            ...       0.0000
Radii:
  Scheme                                          ... Element-dependent radii
  Radius for C  used is    3.4960 Bohr (=   1.8500 Ang.)
  Radius for O  used is    2.8724 Bohr (=   1.5200 Ang.)
  Radius for Cl used is    4.4975 Bohr (=   2.3800 Ang.)
  Radius for H  used is    2.2677 Bohr (=   1.2000 Ang.)
Calculating surface                               ...        done! (  0.0s)
Cavity surface points                             ...         1116
Cavity Volume                                     ...     932.5255
Cavity Surface-area                               ...     547.1313
Calculating surface distance matrix               ...        done! (  0.0s)
Performing Cholesky decomposition & store         ...        done! (  0.4s)
Overall time for CPCM initialization              ...                 0.4s

----------------------------------------D-I-I-S--------------------------------------------
Iteration    Energy (Eh)           Delta-E    RMSDP     MaxDP     DIISErr   Damp  Time(sec)
-------------------------------------------------------------------------------------------
               ***  Starting incremental Fock matrix formation  ***
    1    -767.2881177011011005     0.00e+00  1.80e-03  5.95e-02  6.55e-02  0.700  16.3
    2    -767.2938913696182226    -5.77e-03  1.50e-03  5.29e-02  4.75e-02  0.700   9.3
                               ***Turning on AO-DIIS***
    3    -767.2982186057110994    -4.33e-03  1.21e-03  4.41e-02  3.39e-02  0.700   8.9
    4    -767.3013932956691860    -3.17e-03  3.00e-03  1.11e-01  2.38e-02  0.000   9.2
                              *** Initializing SOSCF ***
---------------------------------------S-O-S-C-F--------------------------------------
Iteration    Energy (Eh)           Delta-E    RMSDP     MaxDP     MaxGrad    Time(sec)
--------------------------------------------------------------------------------------
    5    -767.3094343315572132    -8.04e-03  1.44e-04  4.67e-03  1.57e-03     9.8
               *** Restarting incremental Fock matrix formation ***
    6    -767.3094660741755888    -3.17e-05  6.50e-05  2.21e-03  6.49e-04    16.3
    7    -767.3094750732195735    -9.00e-06  4.36e-05  1.28e-03  1.85e-04    13.9
    8    -767.3094764199338442    -1.35e-06  6.37e-06  2.17e-04  8.84e-05    13.1
    9    -767.3094767029574541    -2.83e-07  3.15e-06  1.12e-04  4.59e-05    11.4
   10    -767.3094767467239308    -4.38e-08  9.03e-07  3.73e-05  1.30e-05    11.1
                 **** Energy Check signals convergence ****

               *****************************************************
               *                     SUCCESS                       *
               *           SCF CONVERGED AFTER  10 CYCLES          *
               *****************************************************


------------------
NL GRID GENERATION
------------------

General Integration Accuracy     IntAcc      ... 4.004
Radial Grid Type                 RadialGrid  ... OptM3 with GC (2021)
Angular Grid (max. ang.)         AngularGrid ... 2 (Lebedev-110)
Angular grid pruning method      GridPruning ... 4 (adaptive)
Weight generation scheme         WeightScheme... mBecke (2022)
Basis function cutoff            BFCut       ... 1.0000e-10
Integration weight cutoff        WCut        ... 1.0000e-14
Partially contracted basis set               ... off
Rotationally invariant grid construction     ... off
Angular grids for H and He will be reduced by one unit

Total number of grid points                  ...    21165
Total number of batches                      ...      337
Average number of points per batch           ...       62
Average number of grid points per atom       ...     1628
Final grid set up in    0.2 sec

-------------------------------------------------------------------------------
                    post-SCF DFT-NL dispersion correction                      
-------------------------------------------------------------------------------

SCF Energy:     -767.309476747 
NL    Energy:      0.256374954 
SC+NL Energy:   -767.053101793 
NL done in  :              2.0 sec
-------------------------------------------------------------------------------
Recomputing exchange energy using gridx3       ... done (   28.597 sec)
Old exchange energy                            :    -20.139424627 Eh
New exchange energy                            :    -20.139404745 Eh
Exchange energy change after final integration :      0.000019883 Eh
Total energy after final integration           :   -767.053081910 Eh

SMD CDS free energy correction energy :                 3.35262     Kcal/mol
Total Energy after SMD CDS correction =              -767.047739177 Eh
             **** ENERGY FILE WAS UPDATED (sp_solv.en.tmp) ****

----------------
TOTAL SCF ENERGY
----------------

Total Energy       :       -767.04773917709736 Eh          -20872.43012 eV

Components:
Nuclear Repulsion  :        404.63937929639104 Eh           11010.79729 eV
Electronic Energy  :      -1171.92945160981913 Eh          -31889.82163 eV
One Electron Energy:      -1854.24570029385268 Eh          -50456.59067 eV
Two Electron Energy:        682.31624868403355 Eh           18566.76904 eV
CPCM Dielectric    :         -0.01940443329598 Eh              -0.52802 eV
SMD CDS (Gcds)     :          0.00534273317364 Eh               0.14538 eV

Virial components:
Potential Energy   :      -1532.20330085329988 Eh          -41693.37147 eV
Kinetic Energy     :        765.15556167620264 Eh           20820.94135 eV
Virial Ratio       :          2.00247293177449

DFT components:
N(Alpha)           :       33.000006658553 electrons
N(Beta)            :       33.000006658553 electrons
N(Total)           :       66.000013317107 electrons
E(X)               :      -48.336869168613 Eh       
E(C)               :       -2.949952281387 Eh       
NL Energy, E(C,NL) :        0.256374953625 Eh       
E(XC)              :      -51.030446496375 Eh       

CPCM Solvation Model Properties:
Surface-charge          :         -0.03105276972099
Corrected charge        :         -0.00000000000000
Outlying charge corr.   :          0.00007394151510 Eh               0.00201 eV
Free-energy (cav+disp)  :          0.00534273317364 Eh               0.14538 eV

---------------
SCF CONVERGENCE
---------------

  Last Energy change         ...    4.3766e-08  Tolerance :   1.0000e-07
  Last MAX-Density change    ...    3.7288e-05  Tolerance :   1.0000e-05
  Last RMS-Density change    ...    9.0265e-07  Tolerance :   1.0000e-06
  Last DIIS Error            ...    1.5747e-03  Tolerance :   1.0000e-07
  Last Orbital Gradient      ...    1.2957e-05  Tolerance :   1.0000e-04
  Last Orbital Rotation      ...    1.8956e-05  Tolerance :   1.0000e-04


----------------
ORBITAL ENERGIES
----------------

  NO   OCC          E(Eh)            E(eV) 
   0   2.0000    -107.147702     -2915.6372 
   1   2.0000     -21.709748      -590.7523 
   2   2.0000     -12.127349      -330.0019 
   3   2.0000     -12.112662      -329.6023 
   4   2.0000     -12.063555      -328.2660 
   5   2.0000     -12.058565      -328.1302 
   6   2.0000     -12.055686      -328.0519 
   7   2.0000     -12.051242      -327.9310 
   8   2.0000     -11.300717      -307.5081 
   9   2.0000      -9.092323      -247.4147 
  10   2.0000      -9.089682      -247.3428 
  11   2.0000      -9.089572      -247.3398 
  12   2.0000      -1.726430       -46.9785 
  13   2.0000      -1.433902       -39.0185 
  14   2.0000      -1.378449       -37.5095 
  15   2.0000      -1.289783       -35.0968 
  16   2.0000      -1.276491       -34.7351 
  17   2.0000      -1.166514       -31.7425 
  18   2.0000      -1.120760       -30.4974 
  19   2.0000      -1.073883       -29.2219 
  20   2.0000      -1.018194       -27.7065 
  21   2.0000      -0.964575       -26.2474 
  22   2.0000      -0.957882       -26.0653 
  23   2.0000      -0.951710       -25.8974 
  24   2.0000      -0.915656       -24.9163 
  25   2.0000      -0.893061       -24.3014 
  26   2.0000      -0.843798       -22.9609 
  27   2.0000      -0.826611       -22.4932 
  28   2.0000      -0.826000       -22.4766 
  29   2.0000      -0.793124       -21.5820 
  30   2.0000      -0.769146       -20.9295 
  31   2.0000      -0.654068       -17.7981 
  32   2.0000      -0.646835       -17.6013 
  33   0.0000      -0.271589        -7.3903 
  34   0.0000      -0.261697        -7.1211 
  35   0.0000      -0.251841        -6.8529 
  36   0.0000      -0.135377        -3.6838 
  37   0.0000      -0.082842        -2.2542 
  38   0.0000      -0.039136        -1.0649 
  39   0.0000      -0.002466        -0.0671 
  40   0.0000       0.002353         0.0640 
  41   0.0000       0.014987         0.4078 
  42   0.0000       0.041824         1.1381 
  43   0.0000       0.080539         2.1916 
*Only the first 10 virtual orbitals were printed.

                    ********************************
                    * MULLIKEN POPULATION ANALYSIS *
                    ********************************

-----------------------
MULLIKEN ATOMIC CHARGES
-----------------------
   0 C :   -0.143307
   1 C :   -0.194853
   2 C :   -0.184284
   3 C :    0.053730
   4 C :    0.223066
   5 C :   -0.246646
   6 O :   -0.452253
   7 Cl:   -0.117955
   8 H :    0.168646
   9 H :    0.165434
  10 H :    0.169712
  11 H :    0.173781
  12 H :    0.384928
Sum of atomic charges:    0.0000000

--------------------------------
MULLIKEN REDUCED ORBITAL CHARGES
--------------------------------
  0 C s       :     3.181714  s :     3.181714
      pz      :     0.946362  p :     2.862495
      px      :     1.001883
      py      :     0.914250
      dz2     :     0.003991  d :     0.091643
      dxz     :     0.006179
      dyz     :     0.024755
      dx2y2   :     0.034870
      dxy     :     0.021848
      f0      :     0.001560  f :     0.007455
      f+1     :     0.000709
      f-1     :     0.000593
      f+2     :     0.000231
      f-2     :     0.001145
      f+3     :     0.001094
      f-3     :     0.002124

  1 C s       :     3.199334  s :     3.199334
      pz      :     0.999023  p :     2.899553
      px      :     0.929086
      py      :     0.971444
      dz2     :     0.004315  d :     0.088591
      dxz     :     0.016690
      dyz     :     0.010620
      dx2y2   :     0.024305
      dxy     :     0.032661
      f0      :     0.001570  f :     0.007374
      f+1     :     0.000643
      f-1     :     0.000689
      f+2     :     0.000977
      f-2     :     0.000296
      f+3     :     0.001132
      f-3     :     0.002066

  2 C s       :     3.218097  s :     3.218097
      pz      :     0.954793  p :     2.862655
      px      :     0.962659
      py      :     0.945202
      dz2     :     0.005003  d :     0.095879
      dxz     :     0.021373
      dyz     :     0.010779
      dx2y2   :     0.022748
      dxy     :     0.035976
      f0      :     0.001623  f :     0.007654
      f+1     :     0.000659
      f-1     :     0.000714
      f+2     :     0.000822
      f-2     :     0.000659
      f+3     :     0.001189
      f-3     :     0.001988

  3 C s       :     3.158400  s :     3.158400
      pz      :     1.062589  p :     2.619565
      px      :     0.753584
      py      :     0.803392
      dz2     :     0.006861  d :     0.157624
      dxz     :     0.026456
      dyz     :     0.024243
      dx2y2   :     0.049830
      dxy     :     0.050235
      f0      :     0.002043  f :     0.010682
      f+1     :     0.001076
      f-1     :     0.000742
      f+2     :     0.000966
      f-2     :     0.001051
      f+3     :     0.001590
      f-3     :     0.003213

  4 C s       :     3.021413  s :     3.021413
      pz      :     0.919577  p :     2.560985
      px      :     0.883537
      py      :     0.757870
      dz2     :     0.006002  d :     0.178792
      dxz     :     0.031146
      dyz     :     0.041612
      dx2y2   :     0.051206
      dxy     :     0.048825
      f0      :     0.002570  f :     0.015745
      f+1     :     0.000957
      f-1     :     0.001130
      f+2     :     0.001192
      f-2     :     0.002510
      f+3     :     0.002065
      f-3     :     0.005322

  5 C s       :     3.245614  s :     3.245614
      pz      :     1.024010  p :     2.912501
      px      :     0.902542
      py      :     0.985949
      dz2     :     0.005996  d :     0.081200
      dxz     :     0.018142
      dyz     :     0.008179
      dx2y2   :     0.028525
      dxy     :     0.020357
      f0      :     0.001612  f :     0.007330
      f+1     :     0.000665
      f-1     :     0.000701
      f+2     :     0.000691
      f-2     :     0.000582
      f+3     :     0.001116
      f-3     :     0.001964

  6 O s       :     3.748573  s :     3.748573
      pz      :     1.834037  p :     4.670257
      px      :     1.581717
      py      :     1.254503
      dz2     :     0.004472  d :     0.031724
      dxz     :     0.003698
      dyz     :     0.002660
      dx2y2   :     0.004667
      dxy     :     0.016226
      f0      :     0.000228  f :     0.001700
      f+1     :     0.000230
      f-1     :     0.000444
      f+2     :     0.000030
      f-2     :     0.000108
      f+3     :     0.000488
      f-3     :     0.000172

  7 Cls       :     5.864421  s :     5.864421
      pz      :     3.939943  p :    11.190218
      px      :     3.279691
      py      :     3.970584
      dz2     :     0.007515  d :     0.057959
      dxz     :     0.017367
      dyz     :     0.000266
      dx2y2   :     0.023358
      dxy     :     0.009453
      f0      :     0.000543  f :     0.005358
      f+1     :     0.001029
      f-1     :     0.000078
      f+2     :     0.000841
      f-2     :     0.000038
      f+3     :     0.001758
      f-3     :     0.001071

  8 H s       :     0.809483  s :     0.809483
      pz      :     0.004244  p :     0.021871
      px      :     0.014123
      py      :     0.003504

  9 H s       :     0.812497  s :     0.812497
      pz      :     0.004608  p :     0.022069
      px      :     0.006803
      py      :     0.010658

 10 H s       :     0.808220  s :     0.808220
      pz      :     0.004240  p :     0.022068
      px      :     0.005454
      py      :     0.012374

 11 H s       :     0.804140  s :     0.804140
      pz      :     0.004631  p :     0.022079
      px      :     0.005175
      py      :     0.012273

 12 H s       :     0.571409  s :     0.571409
      pz      :     0.013890  p :     0.043663
      px      :     0.012397
      py      :     0.017376


------------------------
MULLIKEN OVERLAP CHARGES
------------------------
B(  0-C ,  1-C ) :   0.8831 B(  0-C ,  3-C ) :  -0.1549 B(  0-C ,  4-C ) :   0.0543 
B(  0-C ,  5-C ) :   0.7014 B(  0-C ,  8-H ) :   0.8595 B(  0-C ,  9-H ) :  -0.1037 
B(  0-C , 11-H ) :  -0.0750 B(  1-C ,  2-C ) :   0.8596 B(  1-C ,  3-C ) :   0.0720 
B(  1-C ,  4-C ) :  -0.1744 B(  1-C ,  8-H ) :  -0.0872 B(  1-C ,  9-H ) :   0.8857 
B(  1-C , 10-H ) :  -0.0961 B(  2-C ,  3-C ) :   0.6807 B(  2-C ,  4-C ) :   0.0932 
B(  2-C ,  5-C ) :  -0.2086 B(  2-C ,  7-Cl) :  -0.0688 B(  2-C ,  9-H ) :  -0.1011 
B(  2-C , 10-H ) :   0.8953 B(  3-C ,  4-C ) :   0.6509 B(  3-C ,  6-O ) :  -0.1272 
B(  3-C ,  7-Cl) :   0.5904 B(  3-C , 10-H ) :  -0.1475 B(  4-C ,  5-C ) :   0.8878 
B(  4-C ,  6-O ) :   0.7836 B(  4-C ,  7-Cl) :  -0.1071 B(  4-C , 11-H ) :  -0.0752 
B(  4-C , 12-H ) :  -0.0742 B(  5-C ,  6-O ) :  -0.1742 B(  5-C ,  8-H ) :  -0.0747 
B(  5-C , 11-H ) :   0.8620 B(  6-O , 12-H ) :   0.6272 


                     *******************************
                     * LOEWDIN POPULATION ANALYSIS *
                     *******************************

----------------------
LOEWDIN ATOMIC CHARGES
----------------------
   0 C :   -0.138122
   1 C :   -0.157366
   2 C :   -0.143824
   3 C :   -0.407942
   4 C :   -0.279697
   5 C :   -0.129825
   6 O :    0.058333
   7 Cl:    0.354809
   8 H :    0.155467
   9 H :    0.153286
  10 H :    0.157543
  11 H :    0.160404
  12 H :    0.216933

-------------------------------
LOEWDIN REDUCED ORBITAL CHARGES
-------------------------------
  0 C s       :     2.764565  s :     2.764565
      pz      :     0.869794  p :     2.937728
      px      :     0.998468
      py      :     1.069467
      dz2     :     0.024387  d :     0.392383
      dxz     :     0.013621
      dyz     :     0.087463
      dx2y2   :     0.162595
      dxy     :     0.104318
      f0      :     0.003055  f :     0.043446
      f+1     :     0.003040
      f-1     :     0.004243
      f+2     :     0.001504
      f-2     :     0.008227
      f+3     :     0.008243
      f-3     :     0.015133

  1 C s       :     2.763076  s :     2.763076
      pz      :     0.909945  p :     2.968825
      px      :     1.038291
      py      :     1.020589
      dz2     :     0.024601  d :     0.382504
      dxz     :     0.056556
      dyz     :     0.033322
      dx2y2   :     0.111604
      dxy     :     0.156420
      f0      :     0.003015  f :     0.042961
      f+1     :     0.003908
      f-1     :     0.003483
      f+2     :     0.006928
      f-2     :     0.001973
      f+3     :     0.008336
      f-3     :     0.015319

  2 C s       :     2.766448  s :     2.766448
      pz      :     0.877129  p :     2.944108
      px      :     1.065466
      py      :     1.001513
      dz2     :     0.025598  d :     0.389686
      dxz     :     0.074724
      dyz     :     0.030090
      dx2y2   :     0.114536
      dxy     :     0.144738
      f0      :     0.003251  f :     0.043582
      f+1     :     0.004098
      f-1     :     0.003432
      f+2     :     0.005688
      f-2     :     0.004807
      f+3     :     0.008483
      f-3     :     0.013823

  3 C s       :     2.776353  s :     2.776353
      pz      :     0.967067  p :     2.988056
      px      :     0.935071
      py      :     1.085919
      dz2     :     0.041322  d :     0.582747
      dxz     :     0.084920
      dyz     :     0.077784
      dx2y2   :     0.209857
      dxy     :     0.168864
      f0      :     0.004374  f :     0.060785
      f+1     :     0.005133
      f-1     :     0.004617
      f+2     :     0.006384
      f-2     :     0.007542
      f+3     :     0.011372
      f-3     :     0.021364

  4 C s       :     2.720479  s :     2.720479
      pz      :     0.854639  p :     2.780805
      px      :     1.017440
      py      :     0.908725
      dz2     :     0.044822  d :     0.682660
      dxz     :     0.103147
      dyz     :     0.123870
      dx2y2   :     0.184784
      dxy     :     0.226037
      f0      :     0.007063  f :     0.095754
      f+1     :     0.006250
      f-1     :     0.007321
      f+2     :     0.008863
      f-2     :     0.016843
      f+3     :     0.016367
      f-3     :     0.033047

  5 C s       :     2.761572  s :     2.761572
      pz      :     0.922489  p :     2.959104
      px      :     1.023256
      py      :     1.013359
      dz2     :     0.025686  d :     0.366982
      dxz     :     0.063721
      dyz     :     0.023566
      dx2y2   :     0.134077
      dxy     :     0.119933
      f0      :     0.003113  f :     0.042167
      f+1     :     0.004292
      f-1     :     0.003323
      f+2     :     0.005185
      f-2     :     0.003900
      f+3     :     0.008257
      f-3     :     0.014096

  6 O s       :     3.322509  s :     3.322509
      pz      :     1.717658  p :     4.545960
      px      :     1.568592
      py      :     1.259709
      dz2     :     0.007823  d :     0.068514
      dxz     :     0.005525
      dyz     :     0.008651
      dx2y2   :     0.015653
      dxy     :     0.030862
      f0      :     0.000399  f :     0.004684
      f+1     :     0.000301
      f-1     :     0.000791
      f+2     :     0.000054
      f-2     :     0.000547
      f+3     :     0.001432
      f-3     :     0.001160

  7 Cls       :     5.548018  s :     5.548018
      pz      :     3.865487  p :    10.989703
      px      :     3.266105
      py      :     3.858111
      dz2     :     0.011461  d :     0.096381
      dxz     :     0.029835
      dyz     :     0.000281
      dx2y2   :     0.036127
      dxy     :     0.018676
      f0      :     0.001208  f :     0.011090
      f+1     :     0.001793
      f-1     :     0.000175
      f+2     :     0.002008
      f-2     :     0.000056
      f+3     :     0.003195
      f-3     :     0.002654

  8 H s       :     0.785292  s :     0.785292
      pz      :     0.012477  p :     0.059241
      px      :     0.036130
      py      :     0.010634

  9 H s       :     0.786822  s :     0.786822
      pz      :     0.013556  p :     0.059891
      px      :     0.018463
      py      :     0.027872

 10 H s       :     0.782427  s :     0.782427
      pz      :     0.012682  p :     0.060029
      px      :     0.015211
      py      :     0.032136

 11 H s       :     0.779357  s :     0.779357
      pz      :     0.013731  p :     0.060238
      px      :     0.014694
      py      :     0.031814

 12 H s       :     0.632598  s :     0.632598
      pz      :     0.040284  p :     0.150470
      px      :     0.051990
      py      :     0.058196


---------------------------------
LOEWDIN BOND ORDERS (THRESH 0.050000)
---------------------------------
B(  0-C ,  1-C ) :   1.5774 B(  0-C ,  2-C ) :   0.2464 B(  0-C ,  3-C ) :   0.1051 
B(  0-C ,  4-C ) :   0.2425 B(  0-C ,  5-C ) :   1.5930 B(  0-C ,  8-H ) :   0.8240 
B(  0-C ,  9-H ) :   0.0948 B(  0-C , 11-H ) :   0.0944 B(  1-C ,  2-C ) :   1.5823 
B(  1-C ,  3-C ) :   0.2455 B(  1-C ,  4-C ) :   0.1008 B(  1-C ,  5-C ) :   0.2422 
B(  1-C ,  8-H ) :   0.0947 B(  1-C ,  9-H ) :   0.8259 B(  1-C , 10-H ) :   0.0943 
B(  2-C ,  3-C ) :   1.5609 B(  2-C ,  4-C ) :   0.2320 B(  2-C ,  5-C ) :   0.1084 
B(  2-C ,  7-Cl) :   0.1637 B(  2-C ,  9-H ) :   0.0976 B(  2-C , 10-H ) :   0.8189 
B(  3-C ,  4-C ) :   1.4526 B(  3-C ,  5-C ) :   0.2312 B(  3-C ,  6-O ) :   0.1475 
B(  3-C ,  7-Cl) :   1.5893 B(  3-C , 10-H ) :   0.0988 B(  4-C ,  5-C ) :   1.4909 
B(  4-C ,  6-O ) :   1.6554 B(  4-C ,  7-Cl) :   0.1575 B(  4-C , 11-H ) :   0.0982 
B(  4-C , 12-H ) :   0.1039 B(  5-C ,  6-O ) :   0.1438 B(  5-C ,  8-H ) :   0.0981 
B(  5-C , 11-H ) :   0.8148 B(  6-O , 12-H ) :   0.9701 

------------------------------------------
LOEWDIN REDUCED ORBITAL POPULATIONS PER MO
-------------------------------------------
THRESHOLD FOR PRINTING IS 0.1%%
                      0         1         2         3         4         5   
                 -107.14770 -21.70975 -12.12735 -12.11266 -12.06356 -12.05857
                   2.00000   2.00000   2.00000   2.00000   2.00000   2.00000
                  --------  --------  --------  --------  --------  --------
 0 C  s               0.0       0.0       0.0       0.0       0.0      83.9
 1 C  s               0.0       0.0       0.0       0.0       0.7       1.5
 1 C  dx2y2           0.0       0.0       0.0       0.0       0.2       0.1
 1 C  dxy             0.0       0.0       0.0       0.0       0.0       0.1
 2 C  s               0.0       0.0       0.0       0.1      98.2       0.0
 2 C  dxy             0.0       0.0       0.0       0.2       0.0       0.0
 3 C  s               0.0       0.0       0.5      98.4       0.1       0.0
 3 C  dxy             0.0       0.0       0.1       0.0       0.2       0.0
 4 C  s               0.0       0.0      98.4       0.5       0.0       0.0
 4 C  dxy             0.0       0.1       0.0       0.1       0.0       0.0
 5 C  s               0.0       0.0       0.0       0.0       0.0      13.4
 5 C  dx2y2           0.0       0.0       0.2       0.0       0.0       0.0
 5 C  dxy             0.0       0.0       0.0       0.0       0.0       0.2
 6 O  s               0.0      99.8       0.0       0.0       0.0       0.0
 7 Cl s             100.0       0.0       0.0       0.0       0.0       0.0

                      6         7         8         9        10        11   
                 -12.05569 -12.05124 -11.30072  -9.09232  -9.08968  -9.08957
                   2.00000   2.00000   2.00000   2.00000   2.00000   2.00000
                  --------  --------  --------  --------  --------  --------
 0 C  s              12.6       2.4       0.0       0.0       0.0       0.0
 0 C  dxy             0.2       0.1       0.0       0.0       0.0       0.0
 1 C  s               1.3      95.5       0.0       0.0       0.0       0.0
 2 C  s               0.0       0.7       0.0       0.0       0.0       0.0
 2 C  dx2y2           0.0       0.2       0.0       0.0       0.0       0.0
 4 C  dx2y2           0.2       0.0       0.0       0.0       0.0       0.0
 5 C  s              85.1       0.4       0.0       0.0       0.0       0.0
 7 Cl s               0.0       0.0      99.8       0.0       0.0       0.0
 7 Cl pz              0.0       0.0       0.0       0.0     100.0       0.0
 7 Cl px              0.0       0.0       0.0      99.3       0.0       0.7
 7 Cl py              0.0       0.0       0.0       0.7       0.0      99.3

                     12        13        14        15        16        17   
                  -1.72643  -1.43390  -1.37845  -1.28978  -1.27649  -1.16651
                   2.00000   2.00000   2.00000   2.00000   2.00000   2.00000
                  --------  --------  --------  --------  --------  --------
 0 C  s               0.0       1.5      10.2       0.6      15.0       0.5
 0 C  px              0.0       0.9       2.7       0.0       0.5       0.2
 0 C  py              0.0       0.0       0.0       7.7       0.4       8.4
 0 C  dz2             0.0       0.1       0.5       0.0       0.2       0.0
 0 C  dx2y2           0.0       0.0       0.0       0.1       0.3       0.1
 0 C  dxy             0.0       0.0       0.0       1.8       0.2       0.7
 0 C  f+3             0.0       0.0       0.1       0.0       0.1       0.0
 1 C  s               0.0       2.1       8.5      13.2       1.4       5.8
 1 C  px              0.0       0.9       0.4       1.7       4.9       1.8
 1 C  py              0.0       0.4       2.1       0.2       3.1       0.2
 1 C  dz2             0.0       0.1       0.5       0.2       0.0       0.0
 1 C  dx2y2           0.0       0.0       0.0       0.5       1.5       0.0
 1 C  dxy             0.0       0.0       0.0       0.1       0.4       0.2
 1 C  f+3             0.0       0.0       0.1       0.1       0.0       0.0
 2 C  s               0.0       5.8       5.0      11.3       6.0       1.4
 2 C  px              0.0       0.8       2.6       2.6       2.1       5.5
 2 C  py              0.1       2.6       0.8       0.3       1.4       0.7
 2 C  dz2             0.0       0.3       0.2       0.2       0.1       0.0
 2 C  dx2y2           0.0       0.0       0.0       1.0       0.5       0.4
 2 C  dxy             0.0       0.4       0.1       0.0       0.8       0.2
 3 C  s               0.5      19.8       0.6       0.1       9.2       1.0
 3 C  px              0.0       3.3      14.2       0.0       4.2       0.7
 3 C  py              1.4       0.1       0.1      10.2       0.1       6.2
 3 C  dz2             0.1       1.4       0.0       0.0       0.0       0.0
 3 C  dx2y2           0.3       1.3       1.1       0.2       1.9       0.1
 3 C  dxy             0.0       0.0       0.0       2.1       0.3       0.0
 3 C  f+1             0.0       0.0       0.1       0.0       0.0       0.0
 3 C  f+3             0.0       0.3       0.0       0.0       0.0       0.0
 3 C  f-3             0.0       0.0       0.0       0.0       0.0       0.1
 4 C  s               7.5       4.8       5.0      12.0       1.7       1.4
 4 C  px              3.7       0.2       4.2       1.5       4.3      10.5
 4 C  py              7.3       4.4       0.9       0.1       3.0       1.2
 4 C  dz2             1.2       0.2       0.2       0.0       0.0       0.1
 4 C  dx2y2           0.4       0.0       0.1       0.8       1.4       0.1
 4 C  dxy             3.1       0.7       0.0       0.5       0.3       0.3
 4 C  f-1             0.2       0.0       0.0       0.0       0.0       0.0
 4 C  f+3             0.5       0.0       0.0       0.1       0.0       0.0
 4 C  f-3             0.0       0.0       0.0       0.0       0.1       0.1
 5 C  s               0.4       2.0       9.7       7.3       7.3       4.8
 5 C  px              1.3       0.5       0.2       3.3       3.6       0.0
 5 C  py              0.1       0.7       2.5       0.4       1.5       0.3
 5 C  dz2             0.1       0.1       0.5       0.1       0.1       0.0
 5 C  dx2y2           0.2       0.0       0.0       1.1       0.4       0.0
 5 C  dxy             0.1       0.0       0.0       0.1       1.2       0.1
 6 O  s              56.4       0.5       0.4       1.5       0.1       0.2
 6 O  px              1.2       0.1       0.3       1.4       0.0       0.0
 6 O  py              0.1       1.1       0.7       6.7       2.3      31.6
 6 O  dxy             0.0       0.0       0.0       0.3       0.0       0.6
 7 Cl s               0.0      39.1      20.5       0.1       8.9       0.1
 7 Cl px              0.0       1.0       0.2       0.0       2.0       0.2
 7 Cl py              0.0       0.0       0.0       0.1       0.0       0.1
 7 Cl dx2y2           0.0       0.2       0.0       0.0       0.2       0.0
 8 H  s               0.0       0.2       1.2       0.1       2.5       0.2
 8 H  px              0.0       0.0       0.1       0.0       0.3       0.0
 9 H  s               0.0       0.2       1.0       2.1       0.2       1.8
 9 H  px              0.0       0.0       0.0       0.1       0.0       0.0
 9 H  py              0.0       0.0       0.1       0.1       0.1       0.2
10 H  s               0.0       0.8       0.5       1.9       0.9       0.5
10 H  py              0.0       0.0       0.0       0.1       0.1       0.1
11 H  s               0.1       0.2       1.1       1.1       1.3       1.4
11 H  py              0.0       0.0       0.1       0.1       0.2       0.1
12 H  s              10.4       0.2       0.2       1.7       0.6       8.0
12 H  px              0.8       0.0       0.0       0.2       0.0       0.5
12 H  py              2.1       0.0       0.0       0.1       0.0       0.2

                     18        19        20        21        22        23   
                  -1.12076  -1.07388  -1.01819  -0.96457  -0.95788  -0.95171
                   2.00000   2.00000   2.00000   2.00000   2.00000   2.00000
                  --------  --------  --------  --------  --------  --------
 0 C  s               6.4       1.2       1.2       0.2       0.0       0.3
 0 C  px              1.2       0.5       2.3       2.3       0.0       0.0
 0 C  py              0.0       9.9       4.0       1.6       0.0      11.2
 0 C  dx2y2           0.0       0.0       0.0       0.7       0.0       0.3
 0 C  dxy             0.0       0.1       0.1       0.1       0.0       0.2
 1 C  s               1.3       3.1       0.0       1.4       0.0       0.6
 1 C  pz              0.0       0.0       0.0       0.0       0.1       0.0
 1 C  px              6.2       1.3       5.9       0.4       0.0      10.7
 1 C  py              5.7       0.1       2.1      12.8       0.0       0.5
 1 C  dx2y2           0.5       0.1       0.0       0.0       0.0       0.1
 1 C  dxy             0.0       0.1       0.1       0.0       0.0       0.1
 2 C  s               3.3       3.6       0.1       0.2       0.0       0.3
 2 C  px              4.5       5.5       6.4       0.8       0.0       6.1
 2 C  py              4.0       0.5       0.9       7.8       0.0       0.9
 2 C  dx2y2           0.4       0.0       0.0       0.3       0.0       0.2
 2 C  dxy             0.1       0.0       0.1       0.6       0.0       0.1
 3 C  s               6.1       0.1       0.6       0.8       0.0       0.1
 3 C  pz              0.0       0.0       0.0       0.0       0.9       0.0
 3 C  px              0.1       0.3       0.7      10.6       0.0       0.7
 3 C  py              1.6      12.0       4.8       3.2       0.0       7.6
 3 C  dz2             0.1       0.0       0.0       0.0       0.0       0.0
 3 C  dyz             0.0       0.0       0.0       0.0       0.4       0.0
 3 C  dx2y2           0.1       0.6       0.1       0.1       0.0       0.1
 3 C  dxy             0.0       1.0       0.0       0.1       0.0       0.2
 4 C  s               0.8       1.8       0.1       0.1       0.0       0.1
 4 C  pz              0.0       0.0       0.0       0.0      12.4       0.0
 4 C  px              8.1       1.9       0.4       0.9       0.0       7.6
 4 C  py             10.0       7.2       5.5       0.3       0.0       1.7
 4 C  dxz             0.0       0.0       0.0       0.0       1.3       0.0
 4 C  dyz             0.0       0.0       0.0       0.0       2.5       0.0
 4 C  dx2y2           0.3       0.5       2.1       0.2       0.0       1.7
 4 C  dxy             0.0       1.4       0.4       2.4       0.0       0.0
 4 C  f0              0.0       0.0       0.0       0.0       0.3       0.0
 4 C  f-2             0.0       0.0       0.0       0.0       0.5       0.0
 4 C  f-3             0.0       0.2       0.2       0.1       0.0       0.4
 5 C  s               1.8       1.4       1.1       1.2       0.0       0.5
 5 C  pz              0.0       0.0       0.0       0.0       0.6       0.0
 5 C  px              6.8      10.8       0.3       3.0       0.0       8.7
 5 C  py              5.1       0.0       0.4       4.5       0.0       5.3
 5 C  dxz             0.0       0.0       0.0       0.0       0.5       0.0
 5 C  dx2y2           0.2       0.1       0.0       0.0       0.0       0.1
 5 C  dxy             0.0       0.9       0.8       0.1       0.0       0.3
 6 O  s               0.9       0.4       4.0       0.1       0.0       1.6
 6 O  pz              0.0       0.0       0.0       0.0      78.1       0.0
 6 O  px              6.8       1.2      45.9       0.2       0.0      19.0
 6 O  py              1.3      17.0       0.0       0.9       0.0       0.4
 6 O  dz2             0.0       0.0       0.1       0.0       0.0       0.1
 6 O  dx2y2           0.2       0.0       0.0       0.0       0.0       0.3
 6 O  dxy             0.1       0.2       0.0       0.0       0.0       0.1
 7 Cl s               2.8       0.1       0.5       3.0       0.0       0.5
 7 Cl pz              0.0       0.0       0.0       0.0       0.2       0.0
 7 Cl px              4.1       0.3       2.3      21.3       0.0       3.8
 7 Cl py              0.2       0.2       0.4       1.0       0.0       0.6
 7 Cl dz2             0.1       0.0       0.0       0.1       0.0       0.0
 7 Cl dx2y2           0.3       0.0       0.2       0.4       0.0       0.0
 7 Cl dxy             0.1       0.1       0.1       0.2       0.0       0.1
 8 H  s               2.8       1.1       1.7       0.6       0.0       0.3
 8 H  px              0.3       0.1       0.1       0.0       0.0       0.0
 8 H  py              0.0       0.1       0.1       0.0       0.0       0.1
 9 H  s               0.6       1.6       0.0       7.0       0.0       1.8
 9 H  px              0.2       0.0       0.1       0.2       0.0       0.0
 9 H  py              0.0       0.1       0.0       0.1       0.0       0.2
10 H  s               1.6       3.0       0.0       1.3       0.0       0.1
10 H  px              0.2       0.0       0.1       0.1       0.0       0.1
10 H  py              0.1       0.3       0.0       0.0       0.0       0.0
11 H  s               1.2       1.5       0.2       5.2       0.0       1.1
11 H  px              0.2       0.0       0.0       0.0       0.0       0.2
11 H  py              0.0       0.2       0.0       0.2       0.0       0.0
12 H  s               0.1       5.4       2.0       0.5       0.0       2.1
12 H  pz              0.0       0.0       0.0       0.0       1.7       0.0
12 H  px              0.2       0.2       0.4       0.0       0.0       0.1
12 H  py              0.0       0.0       0.3       0.0       0.0       0.1

                     24        25        26        27        28        29   
                  -0.91566  -0.89306  -0.84380  -0.82661  -0.82600  -0.79312
                   2.00000   2.00000   2.00000   2.00000   2.00000   2.00000
                  --------  --------  --------  --------  --------  --------
 0 C  s               1.1       0.4       0.4       0.2       0.0       0.0
 0 C  pz              0.0       0.0       0.0       0.0       1.4       0.0
 0 C  px             19.1       3.0       6.7      10.4       0.0       0.0
 0 C  py              0.1       0.2       4.8       4.6       0.0       0.4
 0 C  dz2             0.0       0.1       0.0       0.1       0.0       0.0
 0 C  dx2y2           0.6       0.5       2.0       3.3       0.0       0.0
 0 C  dxy             0.1       0.3       1.2       0.0       0.0       0.1
 0 C  f-3             0.1       0.2       0.2       0.0       0.0       0.0
 1 C  s               0.5       0.4       0.7       0.0       0.0       0.0
 1 C  pz              0.0       0.0       0.0       0.0       1.7       0.0
 1 C  px              4.1       0.3       8.8       4.0       0.0       0.4
 1 C  py              3.5       0.5      13.0       5.9       0.0       0.9
 1 C  dz2             0.1       0.0       0.0       0.0       0.0       0.0
 1 C  dxz             0.0       0.0       0.0       0.0       0.1       0.0
 1 C  dx2y2           0.3       0.4       1.4       0.4       0.0       0.0
 1 C  dxy             0.5       1.1       4.3       0.3       0.0       0.3
 1 C  f-3             0.0       0.3       0.0       0.1       0.0       0.0
 2 C  s               1.0       0.5       0.5       0.2       0.0       0.1
 2 C  pz              0.0       0.0       0.0       0.0       5.6       0.0
 2 C  px              4.2       1.7       3.8       5.3       0.0       1.0
 2 C  py              5.7      17.6       0.7       5.0       0.0       1.0
 2 C  dxz             0.0       0.0       0.0       0.0       0.1       0.0
 2 C  dyz             0.0       0.0       0.0       0.0       0.5       0.0
 2 C  dx2y2           1.4       0.1       0.0       1.0       0.0       0.0
 2 C  dxy             0.0       1.3       1.2       1.9       0.0       0.3
 2 C  f-3             0.2       0.0       0.1       0.0       0.0       0.0
 3 C  s               0.1       0.6       0.2       0.0       0.0       0.0
 3 C  pz              0.0       0.0       0.0       0.0      19.0       0.0
 3 C  px              5.3       4.9       1.2       0.3       0.0       0.0
 3 C  py              0.9       0.4       1.3       2.0       0.0       2.3
 3 C  dz2             0.0       0.2       0.0       0.0       0.0       0.0
 3 C  dxz             0.0       0.0       0.0       0.0       1.1       0.0
 3 C  dx2y2           2.2       0.0       0.4       1.6       0.0       0.2
 3 C  dxy             0.2       0.6       0.3       0.2       0.0       3.1
 3 C  f0              0.0       0.0       0.0       0.0       0.2       0.0
 3 C  f-3             0.1       0.2       0.0       0.1       0.0       0.3
 4 C  s               1.0       0.3       0.1       0.1       0.0       0.1
 4 C  pz              0.0       0.0       0.0       0.0       2.7       0.0
 4 C  px              0.1       1.9       0.4       3.7       0.0       1.2
 4 C  py              1.8       0.1       0.2       0.9       0.0       0.8
 4 C  dz2             0.1       0.0       0.0       0.0       0.0       0.0
 4 C  dyz             0.0       0.0       0.0       0.0       1.2       0.0
 4 C  dx2y2           0.1       0.9       0.1       0.1       0.0       0.0
 4 C  dxy             0.0       0.5       1.0       0.5       0.0       0.1
 4 C  f-2             0.0       0.0       0.0       0.0       0.1       0.0
 4 C  f-3             0.1       0.4       0.0       0.0       0.0       0.0
 5 C  s               0.3       0.7       0.2       0.3       0.0       0.0
 5 C  pz              0.0       0.0       0.0       0.0       1.7       0.0
 5 C  px              0.9       5.6       1.8       3.8       0.0       0.4
 5 C  py              0.5      16.5       7.5       4.5       0.0       0.9
 5 C  dx2y2           1.2       0.3       0.0       2.7       0.0       0.1
 5 C  dxy             0.0       0.8       0.1       1.1       0.0       0.2
 5 C  f-3             0.2       0.0       0.0       0.1       0.0       0.0
 6 O  pz              0.0       0.0       0.0       0.0       2.3       0.0
 6 O  px              0.9       0.1       0.8       0.4       0.0       0.1
 6 O  py              0.4       0.1       0.2       0.1       0.0       0.1
 7 Cl s               1.3       0.4       0.1       0.1       0.0       0.0
 7 Cl pz              0.0       0.0       0.0       0.0      61.1       0.0
 7 Cl px             15.6       5.7       1.9       4.2       0.0       0.5
 7 Cl py              0.1       0.0       4.4       3.8       0.0      82.0
 7 Cl dxz             0.0       0.0       0.0       0.0       0.2       0.0
 7 Cl dx2y2           0.2       0.0       0.0       0.0       0.0       0.0
 7 Cl dxy             0.0       0.0       0.0       0.0       0.0       0.2
 8 H  s              12.6       0.6       5.9       9.6       0.0       0.0
 8 H  px              0.4       0.0       0.1       0.2       0.0       0.0
 9 H  s               2.1       0.8      18.5       0.5       0.0       1.0
 9 H  px              0.0       0.0       0.1       0.1       0.0       0.0
 9 H  py              0.1       0.0       0.3       0.0       0.0       0.0
10 H  s               7.5      12.3       0.3       7.9       0.0       0.4
10 H  px              0.0       0.1       0.1       0.0       0.0       0.0
10 H  py              0.3       0.3       0.0       0.2       0.0       0.0
11 H  s               0.0      14.4       1.8       7.5       0.0       1.0
11 H  px              0.0       0.1       0.1       0.0       0.0       0.0
11 H  py              0.0       0.4       0.0       0.1       0.0       0.0
12 H  s               0.0       0.0       0.1       0.3       0.0       0.0

                     30        31        32        33        34        35   
                  -0.76915  -0.65407  -0.64684  -0.27159  -0.26170  -0.25184
                   2.00000   2.00000   2.00000   0.00000   0.00000   0.00000
                  --------  --------  --------  --------  --------  --------
 0 C  s               0.0       0.0       0.0       0.1       0.0       0.0
 0 C  pz             14.1      22.9       5.0       0.0      19.4       3.1
 0 C  dxz             0.5       0.1       0.0       0.0       0.8       0.3
 0 C  dyz             0.0       0.7       3.6       0.0       0.7       4.5
 0 C  f0              0.1       0.0       0.0       0.0       0.1       0.0
 0 C  f-2             0.0       0.1       0.3       0.0       0.0       0.4
 1 C  s               0.0       0.0       0.0       0.3       0.0       0.0
 1 C  pz             13.2       0.2      30.3       0.0      10.9       9.5
 1 C  px              0.0       0.0       0.0       0.7       0.0       0.0
 1 C  dxz             0.1       2.5       0.0       0.0       0.6       3.7
 1 C  dyz             0.4       1.3       0.0       0.0       2.2       0.2
 1 C  dxy             0.0       0.0       0.0       0.3       0.0       0.0
 1 C  f+2             0.0       0.3       0.0       0.0       0.1       0.3
 1 C  f-2             0.0       0.1       0.0       0.0       0.1       0.0
 2 C  s               0.0       0.0       0.0       0.1       0.0       0.0
 2 C  pz             11.4      17.9       8.8       0.0       1.3      24.1
 2 C  px              0.0       0.0       0.0       0.1       0.0       0.0
 2 C  py              0.0       0.0       0.0       0.4       0.0       0.0
 2 C  dxz             0.2       0.8       2.6       0.0       3.4       0.7
 2 C  dyz             0.2       0.4       0.4       0.0       1.4       0.7
 2 C  dx2y2           0.0       0.0       0.0       2.0       0.0       0.0
 2 C  dxy             0.0       0.0       0.0       1.5       0.0       0.0
 2 C  f0              0.1       0.0       0.0       0.0       0.0       0.2
 2 C  f+2             0.0       0.0       0.2       0.0       0.2       0.1
 2 C  f-2             0.0       0.1       0.1       0.0       0.2       0.0
 2 C  f-3             0.0       0.0       0.0       0.4       0.0       0.0
 3 C  s               0.0       0.0       0.0       7.5       0.0       0.0
 3 C  pz              5.0      18.2       5.3       0.0      19.9       3.2
 3 C  px              0.0       0.0       0.0      21.6       0.0       0.0
 3 C  py              0.0       0.0       0.0       0.3       0.0       0.0
 3 C  dz2             0.0       0.0       0.0       2.0       0.0       0.0
 3 C  dxz             2.6       0.5       0.0       0.0       0.8       0.3
 3 C  dyz             0.0       0.7       2.7       0.0       0.8       5.1
 3 C  dx2y2           0.0       0.0       0.0       2.9       0.0       0.0
 3 C  dxy             0.0       0.0       0.0       0.2       0.0       0.0
 3 C  f0              0.0       0.0       0.0       0.0       0.3       0.0
 3 C  f+1             0.0       0.0       0.0       0.1       0.0       0.0
 3 C  f+2             0.1       0.0       0.0       0.0       0.1       0.0
 3 C  f-2             0.0       0.1       0.3       0.0       0.0       0.5
 3 C  f+3             0.0       0.0       0.0       0.6       0.0       0.0
 4 C  s               0.0       0.0       0.0       0.1       0.0       0.0
 4 C  pz              7.4       0.0      20.2       0.0      17.5      10.2
 4 C  px              0.0       0.0       0.0       0.3       0.0       0.0
 4 C  py              0.0       0.0       0.0       2.3       0.0       0.0
[...]
 6 O  px              0.0       0.0       3.5       0.0       0.0       0.0
 6 O  py              0.0       7.3       0.4       0.0       0.1       0.0
 6 O  dz2             0.0       1.7      21.8       0.0      11.0       0.0
 6 O  dxz             7.4       0.0       0.0      68.0       0.0      21.6
 6 O  dyz            15.0       0.0       0.0      26.7       0.0      56.7
 6 O  dx2y2           0.0       0.7       0.4       0.0      13.8       0.0
 6 O  dxy             0.0      10.0       0.3       0.0      12.8       0.0
 6 O  f0             23.3       0.0       0.0       2.4       0.0       4.7
 6 O  f+1             0.0       1.8       3.3       0.0       0.2       0.0
 6 O  f-1             0.0      44.0       3.5       0.0       0.2       0.0
 6 O  f+2             3.1       0.0       0.0       0.3       0.0       0.7
 6 O  f-2            35.0       0.0       0.0       0.7       0.0      10.9
 6 O  f+3             0.0       0.4      16.4       0.0      11.6       0.0
 6 O  f-3             0.0       0.0      21.7       0.0      17.1       0.0
11 H  s               0.0       0.2       0.1       0.0       0.0       0.0
12 H  s               0.0       2.2       2.3       0.0       1.2       0.0
12 H  pz              0.0       0.0       0.0       0.5       0.0       0.0
12 H  px              0.0       0.3       1.1       0.0       0.1       0.0
12 H  py              0.0       0.4       0.1       0.0       1.3       0.0

                    270       271       272       273       274       275   
                   6.36129   6.53090   6.85859   9.61019   9.69138  10.24177
                   0.00000   0.00000   0.00000   0.00000   0.00000   0.00000
                  --------  --------  --------  --------  --------  --------
 3 C  s               0.1       0.3       0.0       0.0       0.0       1.1
 3 C  px              0.1       0.2       0.1       0.0       0.0       0.4
 3 C  py              0.1       0.1       0.0       0.0       0.0       0.0
 3 C  dxy             0.1       0.1       0.2       0.0       0.1       0.0
 3 C  f-3             0.0       0.0       0.1       0.0       0.0       0.0
 4 C  s               0.9       1.2       0.7       0.0       0.0       0.1
 4 C  px              0.3       1.1       0.1       0.0       0.0       0.1
 4 C  py              0.8       0.8       0.1       0.0       0.0       0.0
 4 C  dz2             0.1       0.1       0.1       0.0       0.0       0.0
 4 C  dx2y2           0.7       0.6       1.6       0.0       0.0       0.0
 4 C  dxy             2.3       0.7       0.4       0.0       0.0       0.0
 4 C  f-1             0.1       0.2       0.0       0.0       0.0       0.0
 4 C  f+3             0.0       1.0       0.0       0.0       0.0       0.0
 4 C  f-3             0.4       0.0       2.5       0.0       0.0       0.0
 5 C  s               0.1       0.4       0.4       0.0       0.0       0.0
 5 C  px              0.0       0.0       0.4       0.0       0.0       0.0
 5 C  py              0.3       0.0       0.1       0.0       0.0       0.0
 5 C  dxy             0.3       0.0       0.2       0.0       0.0       0.0
 5 C  f+3             0.0       0.1       0.2       0.0       0.0       0.0
 6 O  s               2.2       0.9       2.9       0.0       0.0       0.0
 6 O  px              3.5       0.1       0.1       0.0       0.0       0.0
 6 O  py              0.6       2.8       0.8       0.0       0.0       0.0
 6 O  dz2            42.6       6.8       5.8       0.0       0.0       0.0
 6 O  dx2y2          27.1      27.4      24.4       0.0       0.0       0.0
 6 O  dxy             0.6      46.9      22.4       0.0       0.0       0.0
 6 O  f+1             7.6       0.0       1.2       0.0       0.0       0.0
 6 O  f-1             0.1       4.2       2.0       0.0       0.0       0.0
 6 O  f+3             4.0       2.4      15.9       0.0       0.0       0.0
 6 O  f-3             2.0       0.4       9.6       0.0       0.0       0.0
 7 Cl s               0.0       0.0       0.0       0.0       0.0       0.9
 7 Cl pz              0.0       0.0       0.0      99.9       0.0       0.0
 7 Cl px              0.0       0.0       0.0       0.0       0.6      96.3
 7 Cl py              0.0       0.0       0.0       0.0      98.8       0.6
 7 Cl dx2y2           0.0       0.0       0.0       0.0       0.0       0.1
12 H  s               2.1       0.4       6.6       0.0       0.0       0.0
12 H  px              0.0       0.1       0.2       0.0       0.0       0.0
12 H  py              0.3       0.0       0.3       0.0       0.0       0.0

                    276       277       278       279       280       281   
                  20.35355  20.99386  21.05093  21.11224  21.22518  21.61054
                   0.00000   0.00000   0.00000   0.00000   0.00000   0.00000
                  --------  --------  --------  --------  --------  --------
 0 C  s              16.8      32.6      22.1       3.5      16.2       6.8
 0 C  py              0.0       0.2       0.4       0.0       0.0       0.0
 0 C  dxy             0.0       0.0       0.1       0.0       0.0       0.0
 1 C  s              15.9      30.8      32.1       0.3      11.2       7.8
 1 C  px              0.0       0.2       0.2       0.0       0.0       0.0
 1 C  py              0.1       0.1       0.1       0.0       0.0       0.0
 2 C  s              16.3       9.8      18.5      16.0      30.6       6.8
 2 C  px              0.0       0.4       0.1       0.1       0.0       0.0
 3 C  s              21.8      17.2       0.0      44.0       0.5      14.3
 3 C  px              0.0       0.0       0.0       0.1       0.0       0.0
 3 C  py              0.0       0.0       0.3       0.0       0.5       0.1
 3 C  dx2y2           0.0       0.0       0.0       0.0       0.0       0.1
 3 C  dxy             0.0       0.0       0.1       0.0       0.2       0.0
 4 C  s               8.9       3.4       0.1       2.2      31.4      51.6
 4 C  px              0.1       0.0       0.2       0.2       0.1       0.0
 4 C  py              0.2       0.1       0.1       0.1       0.0       0.0
 4 C  dx2y2           0.0       0.0       0.1       0.2       0.1       0.0
 5 C  s              18.8       3.7      24.7      32.1       8.1      10.7
 5 C  px              0.0       0.3       0.0       0.0       0.1       0.0
 5 C  py              0.1       0.1       0.0       0.0       0.0       0.0
 6 O  s               0.2       0.0       0.0       0.0       0.1       0.2
 6 O  py              0.1       0.0       0.0       0.0       0.1       0.2
 7 Cl s               0.0       0.2       0.0       0.3       0.0       0.1

                    282       283   
                  24.69899  41.55856
                   0.00000   0.00000
                  --------  --------
 2 C  px              0.2       0.0
 3 C  s               0.5       0.0
 3 C  px              0.7       0.0
 3 C  dx2y2           0.6       0.0
 4 C  s               0.1       0.0
 4 C  px              0.2       0.0
 4 C  dxy             0.1       0.0
 6 O  s               0.0      99.7
 7 Cl s              96.5       0.0
 7 Cl px              0.4       0.0


                      *****************************
                      * MAYER POPULATION ANALYSIS *
                      *****************************

  NA   - Mulliken gross atomic population
  ZA   - Total nuclear charge
  QA   - Mulliken gross atomic charge
  VA   - Mayer's total valence
  BVA  - Mayer's bonded valence
  FA   - Mayer's free valence

  ATOM       NA         ZA         QA         VA         BVA        FA
  0 C      6.1433     6.0000    -0.1433     3.8802     3.8802     0.0000
  1 C      6.1949     6.0000    -0.1949     3.9195     3.9195     0.0000
  2 C      6.1843     6.0000    -0.1843     3.9420     3.9420     0.0000
  3 C      5.9463     6.0000     0.0537     3.8256     3.8256    -0.0000
  4 C      5.7769     6.0000     0.2231     3.9990     3.9990    -0.0000
  5 C      6.2466     6.0000    -0.2466     3.8588     3.8588     0.0000
  6 O      8.4523     8.0000    -0.4523     2.0466     2.0466     0.0000
  7 Cl    17.1180    17.0000    -0.1180     1.1862     1.1862     0.0000
  8 H      0.8314     1.0000     0.1686     0.9601     0.9601    -0.0000
  9 H      0.8346     1.0000     0.1654     0.9609     0.9609    -0.0000
 10 H      0.8303     1.0000     0.1697     0.9690     0.9690    -0.0000
 11 H      0.8262     1.0000     0.1738     0.9651     0.9651     0.0000
 12 H      0.6151     1.0000     0.3849     0.8651     0.8651     0.0000

  Mayer bond orders larger than 0.100000
B(  0-C ,  1-C ) :   1.4050 B(  0-C ,  5-C ) :   1.3994 B(  0-C ,  8-H ) :   0.9651 
B(  1-C ,  2-C ) :   1.4227 B(  1-C ,  9-H ) :   0.9738 B(  2-C ,  3-C ) :   1.3998 
B(  2-C , 10-H ) :   0.9645 B(  3-C ,  4-C ) :   1.3132 B(  3-C ,  7-Cl) :   1.0199 
B(  4-C ,  5-C ) :   1.3773 B(  4-C ,  6-O ) :   1.1782 B(  5-C , 11-H ) :   0.9615 
B(  6-O , 12-H ) :   0.8410 

-------
TIMINGS
-------

Total SCF time: 0 days 0 hours 2 min 31 sec 

Total time                  ....     151.324 sec
Sum of individual times     ....     148.480 sec  ( 98.1%)

SCF preparation             ....       0.688 sec  (  0.5%)
Fock matrix formation       ....     145.259 sec  ( 96.0%)
  Startup                   ....       0.072 sec  (  0.0% of F)
  Split-RI-J                ....       5.644 sec  (  3.9% of F)
  Chain of spheres X        ....     117.869 sec  ( 81.1% of F)
  XC integration            ....      17.197 sec  ( 11.8% of F)
    XC Preparation          ....       0.000 sec  (  0.0% of XC)
    Basis function eval.    ....       3.376 sec  ( 19.6% of XC)
    Density eval.           ....       2.856 sec  ( 16.6% of XC)
    XC-Functional eval.     ....       3.011 sec  ( 17.5% of XC)
    XC-Potential eval.      ....       5.040 sec  ( 29.3% of XC)
  CPCM terms                ....       5.860 sec  (  4.0% of F)
Diagonalization             ....       0.000 sec  (  0.0%)
Density matrix formation    ....       0.232 sec  (  0.2%)
Total Energy calculation    ....       0.065 sec  (  0.0%)
Population analysis         ....       0.167 sec  (  0.1%)
Orbital Transformation      ....       0.087 sec  (  0.1%)
Orbital Orthonormalization  ....       0.000 sec  (  0.0%)
DIIS solution               ....       1.518 sec  (  1.0%)
  MO trafo                  ....       0.000 sec  (  0.0 % of DIIS)
  Orb grad                  ....       0.000 sec  (  0.0 % of DIIS)
  Energy W gradient         ....       0.000 sec  (  0.0 % of DIIS)
  DIIS error                ....       0.014 sec  (  0.9 % of DIIS)
  DIIS work                 ....       1.446 sec  ( 95.2 % of DIIS)
  Form Q                    ....       0.000 sec  (  0.0 % of DIIS)
  Form QpQm                 ....       0.000 sec  (  0.0 % of DIIS)
  Exp/Cayley                ....       0.000 sec  (  0.0 % of DIIS)
  Orb update                ....       0.000 sec  (  0.0 % of DIIS)
  Wake-sleep                ....       0.013 sec  (  0.9 % of DIIS)
SOSCF solution              ....       0.282 sec  (  0.2%)
  MO trafo                  ....       0.091 sec  ( 32.2 % of SOSCF)
  Orb grad                  ....       0.003 sec  (  1.2 % of SOSCF)
  Rot update                ....       0.109 sec  ( 38.5 % of SOSCF)
  Step                      ....       0.079 sec  ( 28.0 % of SOSCF)
Grid generation             ....       0.182 sec  (  0.1%)
Finished LeanSCF after 151.4 sec

Maximum memory used throughout the entire LEANSCF-calculation: 36.5 MB
------------------   -----------------
gCP correction             0.006764371
------------------   -----------------

-------------------------   --------------------
FINAL SINGLE POINT ENERGY      -767.040974806097
-------------------------   --------------------


------------------------------------------------------------------------------
                              ORCA PROPERTY CALCULATIONS
------------------------------------------------------------------------------

GBWName                                 ... sp_solv.gbw
Number of atoms                         ...     13
Number of basis functions               ...    284
Max core memory                         ...   1024 MB

Electric properties:
Dipole moment                           ... YES
Quadrupole moment                       ...  NO
Static polarizability (Dipole/Dipole)   ...  NO
Static polarizability (Dipole/Quad.)    ...  NO
Static polarizability (Quad./Quad.)     ...  NO
Static polarizability (Velocity)        ...  NO

Atomic electric properties:
Dipole moment                           ...  NO
Quadrupole moment                       ...  NO
Static polarizability                   ...  NO

Choice of electric origin               ... Center of mass
Position of electric origin             ...     0.012050    -0.001977    -0.000005

General magnetic properties:
Magnetizability                         ...  NO

EPR properties:
g-Tensor (aka g-matrix)                 ...  NO
Zero-Field splitting spin-orbit         ...  NO
Zero-field splitting spin-spin          ...  NO
Hyperfine couplings                     ...  NO (   0 nuclei)
Quadrupole couplings                    ...  NO (   0 nuclei)
Contact density                         ...  NO (   0 nuclei)

NMR properties:
Chemical shifts                         ...  NO (   0 nuclei)
Spin-rotation constants                 ...  NO (   0 nuclei)
Spin-spin couplings                     ...  NO (   0 nuclei,    0 pairs)

Choice of magnetic origin               ... GIAO
Position of magnetic origin             ...     0.000000     0.000000     0.000000

Properties with geometric perturbations:
SCF Hessian                             ...  NO
IR spectrum                             ...  NO
VCD spectrum                            ...  NO
X-ray spectroscopy properties:
SCF XES/XAS/RIXS spectra                ...  NO


-------------
DIPOLE MOMENT
-------------

Method             : SCF
Type of density    : Electron Density
Multiplicity       :   1
Irrep              :   0
Energy             :  -767.0477391770973554 Eh
Relativity type    : 
Basis              : AO
                                X                 Y                 Z
Electronic contribution:      8.700128876      -0.265732948      -0.000082313
Nuclear contribution   :    -10.286243236       0.825475434       0.000103156
                        -----------------------------------------
Total Dipole Moment    :     -1.586114360       0.559742486       0.000020843
                        -----------------------------------------
Magnitude (a.u.)       :      1.681984071
Magnitude (Debye)      :      4.275263748



--------------------
Rotational spectrum 
--------------------
 
Rotational constants in cm-1:             0.098196             0.051058             0.033592 
Rotational constants in MHz :          2943.827276          1530.685992          1007.053707 

Dipole components along the rotational axes: 
x,y,z [a.u.] :     1.583471     0.567177     0.000001 
x,y,z [Debye]:     4.024863     1.441650     0.000001 

 

Dipole moment calculation done in   0.0 sec 

Maximum memory used throughout the entire PROP-calculation: 23.0 MB

--------------------------------
SUGGESTED CITATIONS FOR THIS RUN
--------------------------------

Below you find a list of papers that are relevant to this ORCA run
We neither can nor want to force you to cite these papers, but we appreciate if you do
You receive ORCA, which is the product of decades of hard work by many enthusiastic individuals, for free
The only thing we kindly ask in return is that you cite our papers,
We deeply appreciate it, if you show your appreciation for ORCA by not just citing the generic ORCA reference.

Please note that relegating all ORCA citations to the supporting information does *not* help us.
SI sections are not indexed - citations you put there will not count into any citation statistics
But we need these citations in order to attract the funding resources that allow us to do what we are doing

Therefore, if you are a happy ORCA user, please consider citing a few of the papers listed below in the main body of your paper

In addition to the list printed below, the program has created the file sp_solv.bibtex that contains the list in bibtex format
You can import this file easily into all common literature databanks and citation aid programs


List of essential papers. We consider these as the minimum necessary citations

  1. Neese,F.
     Software update: the ORCA program system, version 5.0
     WIRES Comput. Molec. Sci., 2022 12(1)e1606
     doi.org/10.1002/wcms.1606

List of papers to cite with high priority. The work reported in these papers was absolutely
necessary for this run to complete.
Our perspective: the developers of density functionals and basis sets usually get cited in chemistry papers
Good! But without the algorithms to do something with them, the functionals or basis sets would not do anything.
Hence, in our opinion, the algorithm design and method developments papers are equally worthy of getting cited

  1. Neese,F.
     An improvement of the resolution of the identity approximation for the formation of the Coulomb matrix
     J. Comp. Chem., 2003 24(14)1740-1747
     doi.org/10.1002/jcc.10318
  2. Neese,F.; Wennmohs,F.; Hansen,A.; Becker,U.
     Efficient, approximate and parallel Hartree-Fock and hybrid DFT calculations. A 'chain-of-spheres' algorithm for the Hartree-Fock exchange
     Chem. Phys., 2009 356(1-3)98-109
     doi.org/10.1016/j.chemphys.2008.10.036
  3. Garcia-Rates,M.; Neese,F.
     Effect of the Solute Cavity on the Solvation Energy and its Derivatives within the Framework of the Gaussian Charge Scheme
     J. Comput. Chem., 2020 41 922-939
     doi.org/10.1002/jcc.26139
  4. Helmich-Paris,B.; de Souza,B.; Neese,F.; Izsák,R.
     An improved chain of spheres for exchange algorithm
     J. Chem. Phys., 2021 155 104109
     doi.org/doi: 10.1063/5.0058766.
  5. Neese,F.
     The SHARK Integral Generation and Digestion System
     J. Comp. Chem., 2022  1-16
     doi.org/10.1002/jcc.26942

List of suggested additional citations. These are papers that are important in the 'surrounding' of 
of this run, or papers that preceded the highly important papers. If you like your results we are grateful for a citation.

  1. Izsak,R.; Neese,F.
     An overlap fitted chain of spheres exchange method
     J. Chem. Phys., 2011 135 144105
     doi.org/10.1063/1.3646921
  2. Izsak,R.; Hansen,A.; Neese,F.
     The resolution of identity and chain of spheres approximations for the LPNO-CCSD singles Fock term
     Molec. Phys., 2012 110 2413-2417
     doi.org/10.1080/00268976.2012.687466
  3. Neese,F.
     The ORCA program system
     WIRES Comput. Molec. Sci., 2012 2(1)73-78
     doi.org/10.1002/wcms.81
  4. Izsak,R.; Neese,F.; Klopper,W.
     Robust fitting techniques in the chain of spheres approximation to the Fock exchange: The role of the complementary space
     J. Chem. Phys., 2013 139 
     doi.org/10.1063/1.4819264
  5. Neese,F.
     Software update: the ORCA program system, version 4.0
     WIRES Comput. Molec. Sci., 2018 8(1)1-6
     doi.org/10.1002/wcms.1327
  6. Neese,F.; Wennmohs,F.; Becker,U.; Riplinger,C.
     The ORCA quantum chemistry program package
     J. Chem. Phys., 2020 152 Art. No. L224108
     doi.org/10.1063/5.0004608

List of optional additional citations

  1. Neese,F.
     Approximate second-order SCF convergence for spin unrestricted wavefunctions
     Chem. Phys. Lett., 2000 325(1-3)93-98
     doi.org/10.1016/s0009-2614(00)00662-x

Timings for individual modules:

Sum of individual times          ...      154.222 sec (=   2.570 min)
Startup calculation              ...        2.294 sec (=   0.038 min)   1.5 %
SCF iterations                   ...      151.804 sec (=   2.530 min)  98.4 %
Property calculations            ...        0.124 sec (=   0.002 min)   0.1 %
                             ****ORCA TERMINATED NORMALLY****
TOTAL RUN TIME: 0 days 0 hours 2 minutes 35 seconds 64 msec
