13
 energy: -766.988272920419 gnorm: 0.019448856362 xtb: 6.7.1 (edcfbbe)
C           -2.41527520157027       -0.07929039613514        0.00000788190000
C           -1.84152379171603       -1.34022315919389        0.00001734740001
C           -0.46352017310540       -1.46898490055095        0.00010082990004
C            0.32678546844481       -0.33510598934849        0.00001443220001
C           -0.23221168700290        0.94262754461770        0.00004262310002
C           -1.62137629491847        1.05065583836557       -0.00000896490000
O            0.50815400942518        2.07034081661742        0.00002698090001
Cl           2.07304911081862       -0.49620337711988       -0.00003142540001
H           -3.48826385074574        0.02623907461163       -0.00026838670012
H           -2.45927823528977       -2.22318153398515       -0.00044830770020
H           -0.00018060880008       -2.44265023018240       -0.00015766410007
H           -2.04875274340786        2.04006704780401       -0.00052803360023
H            1.45510497504480        1.85018363961987        0.00000427310000
13
 energy: -766.988838056498 gnorm: 0.008397978400 xtb: 6.7.1 (edcfbbe)
C           -2.41799488677849       -0.07819921525822       -0.00017637979822
C           -1.84535426949986       -1.34693836698545       -0.00013008557479
C           -0.46238336939895       -1.47820441925937       -0.00006345407428
C            0.33125931169613       -0.34060627078586        0.00001706985514
C           -0.22832142945063        0.94229565375257       -0.00001382647194
C           -1.61954584169577        1.05545986949780       -0.00014623680121
O            0.50916621030835        2.08241717652837        0.00001843949851
Cl           2.08172982283650       -0.50194827167545        0.00003137300432
H           -3.49601638312184        0.03121266432603       -0.00024095386721
H           -2.46700762738948       -2.23367600428928       -0.00020334154821
H            0.00204493508133       -2.45665887832486       -0.00007016296199
H           -2.05046102532109        2.05004396599182       -0.00028601994306
H            1.45559553741378        1.86927627135008        0.00003519811332
13
 energy: -766.988900279931 gnorm: 0.002996743652 xtb: 6.7.1 (edcfbbe)
C           -2.41923969666914       -0.07768725768041       -0.00020197521044
C           -1.84708697458709       -1.34907758245060       -0.00015811069311
C           -0.46225007021748       -1.48171828919229       -0.00007917218429
C            0.33240077360765       -0.34277757008020       -0.00003463312915
C           -0.22773769278134        0.94018959990846       -0.00007272646293
C           -1.61889811651574        1.05700535800003       -0.00016068842461
O            0.51070338969785        2.08609089415109        0.00000400030133
Cl           2.08594561497150       -0.49840080734172        0.00008908724933
H           -3.49873618843523        0.03367135447337       -0.00026113085812
H           -2.47014691037025       -2.23684501214496       -0.00016147769408
H            0.00253977718789       -2.46171649671364       -0.00004292183434
H           -2.05140091909037        2.05276897078269       -0.00018131113716
H            1.45661800106160        1.87297099470085        0.00003268273206
13
 energy: -766.988905327210 gnorm: 0.001198675457 xtb: 6.7.1 (edcfbbe)
C           -2.41926991847412       -0.07761198073372       -0.00019711049226
C           -1.84708509043630       -1.34893557550062       -0.00015525450757
C           -0.46221539325631       -1.48198542467968       -0.00007307812667
C            0.33231832881690       -0.34297112374736       -0.00002548441836
C           -0.22810094490657        0.93941591556268       -0.00006180739478
C           -1.61888183240151        1.05716852972180       -0.00015334416417
O            0.51085795198782        2.08701226196119       -0.00000932123891
Cl           2.08669589339684       -0.49833801595524        0.00009058024477
H           -3.49866547583153        0.03394753055327       -0.00026401491449
H           -2.47012924686322       -2.23663418066975       -0.00018122969592
H            0.00243047201911       -2.46202841555471       -0.00004164634694
H           -2.05185671150432        2.05257354330172       -0.00017794906960
H            1.45661295573293        1.87286109182650        0.00002128312358
13
 energy: -766.988906641706 gnorm: 0.000620196278 xtb: 6.7.1 (edcfbbe)
C           -2.41909703733232       -0.07755586059570       -0.00018965245922
C           -1.84678034295386       -1.34839912668218       -0.00015743779299
C           -0.46211628926444       -1.48168274115154       -0.00006521983667
C            0.33188994818804       -0.34266451542663       -0.00001476904524
C           -0.22871177200849        0.93883669778057       -0.00005621366840
C           -1.61891278884028        1.05723088079754       -0.00013927234049
O            0.51106393863901        2.08745104140892       -0.00002874788481
Cl           2.08688262061820       -0.49815551165423        0.00009946929989
H           -3.49824314860331        0.03381140763113       -0.00026160746419
H           -2.46958859522379       -2.23599390867220       -0.00020730371103
H            0.00226909394863       -2.46160275901348       -0.00004070736776
H           -2.05230663094694        2.05200136747831       -0.00017474500800
H            1.45636199129769        1.87119719683682        0.00000782792097
13
 energy: -766.988906641706 gnorm: 0.000620196278 xtb: 6.7.1 (edcfbbe)
C           -2.41909703733232       -0.07755586059570       -0.00018965245922
C           -1.84678034295386       -1.34839912668218       -0.00015743779299
C           -0.46211628926444       -1.48168274115154       -0.00006521983667
C            0.33188994818804       -0.34266451542663       -0.00001476904524
C           -0.22871177200849        0.93883669778057       -0.00005621366840
C           -1.61891278884028        1.05723088079754       -0.00013927234049
O            0.51106393863901        2.08745104140892       -0.00002874788481
Cl           2.08688262061820       -0.49815551165423        0.00009946929989
H           -3.49824314860331        0.03381140763113       -0.00026160746419
H           -2.46958859522379       -2.23599390867220       -0.00020730371103
H            0.00226909394863       -2.46160275901348       -0.00004070736776
H           -2.05230663094694        2.05200136747831       -0.00017474500800
H            1.45636199129769        1.87119719683682        0.00000782792097
