
                                 *****************
                                 * O   R   C   A *
                                 *****************

                                            #,                                       
                                            ###                                      
                                            ####                                     
                                            #####                                    
                                            ######                                   
                                           ########,                                 
                                     ,,################,,,,,                         
                               ,,#################################,,                 
                          ,,##########################################,,             
                       ,#########################################, ''#####,          
                    ,#############################################,,   '####,        
                  ,##################################################,,,,####,       
                ,###########''''           ''''###############################       
              ,#####''   ,,,,##########,,,,          '''####'''          '####       
            ,##' ,,,,###########################,,,                        '##       
           ' ,,###''''                  '''############,,,                           
         ,,##''                                '''############,,,,        ,,,,,,###''
      ,#''                                            '''#######################'''  
     '                                                          ''''####''''         
             ,#######,   #######,   ,#######,      ##                                
            ,#'     '#,  ##    ##  ,#'     '#,    #''#        ,####,   ,####,        
            ##       ##  ##   ,#'  ##            #'  '#       #'       #'  '#        
            ##       ##  #######   ##           ,######,      #####,   #    #        
            '#,     ,#'  ##    ##  '#,     ,#' ,#      #,     #,   #   #,  ,#        
             '#######'   ##     ##  '#######'  #'      '#     '####' # '####'        



                #########################################################
                #                        -***-                          #
                #          Department of theory and spectroscopy        #
                #                                                       #
                #                      Frank Neese                      #
                #                                                       #
                #     Directorship, Architecture, Infrastructure        #
                #                    SHARK, DRIVERS                     #
                #        Core code/Algorithms in most modules           #
                #                                                       #
                #        Max Planck Institute fuer Kohlenforschung      #
                #                Kaiser Wilhelm Platz 1                 #
                #                 D-45470 Muelheim/Ruhr                 #
                #                      Germany                          #
                #                                                       #
                #                  All rights reserved                  #
                #                        -***-                          #
                #########################################################


                         Program Version 6.0.0  -   RELEASE  -


 With contributions from (in alphabetic order):
   Daniel Aravena         : Magnetic Suceptibility
   Michael Atanasov       : Ab Initio Ligand Field Theory (pilot matlab implementation)
   Alexander A. Auer      : GIAO ZORA, VPT2 properties, NMR spectrum
   Ute Becker             : All parallelization in ORCA, NUMFREQ, NUMCALC
   Giovanni Bistoni       : ED, misc. LED, open-shell LED, HFLD
   Martin Brehm           : Molecular dynamics
   Dmytro Bykov           : pre 5.0 version of the SCF Hessian
   Marcos Casanova-Páez   : Triplet and SCS-CIS(D). UHF-(DLPNO)-IP/EA/STEOM-CCSD. UHF-CVS-IP/STEOM-CCSD
   Vijay G. Chilkuri      : MRCI spin determinant printing, contributions to CSF-ICE
   Pauline Colinet        : FMM embedding
   Dipayan Datta          : RHF DLPNO-CCSD density
   Achintya Kumar Dutta   : EOM-CC, STEOM-CC
   Nicolas Foglia         : Exact transition moments, OPA infrastructure, MCD improvements
   Dmitry Ganyushin       : Spin-Orbit,Spin-Spin,Magnetic field MRCI
   Miquel Garcia          : C-PCM and meta-GGA Hessian, CCSD/C-PCM, Gaussian charge scheme
   Tiago L. C. Gouveia    : GS-ROHF, GS-ROCIS
   Yang Guo               : DLPNO-NEVPT2, F12-NEVPT2, CIM, IAO-localization
   Andreas Hansen         : Spin unrestricted coupled pair/coupled cluster methods
   Ingolf Harden          : AUTO-CI MPn and infrastructure 
   Benjamin Helmich-Paris : MC-RPA, TRAH-(SCF,CASSCF), AVAS, COSX integrals, SCF dyn. polar.
   Lee Huntington         : MR-EOM, pCC
   Robert Izsak           : Overlap fitted RIJCOSX, COSX-SCS-MP3, EOM
   Riya Kayal             : Wick's Theorem for AUTO-CI, AUTO-CI UHF-CCSDT
   Emily Kempfer          : AUTO-CI, RHF CISDT and CCSDT
   Christian Kollmar      : KDIIS, OOCD, Brueckner-CCSD(T), CCSD density, CASPT2, CASPT2-K, improved NEVPT2
   Axel Koslowski         : Symmetry handling
   Simone Kossmann        : Meta GGA functionals, TD-DFT gradient, OOMP2, (MP2 Hessian; deprecated post 5.0)
   Lucas Lang             : DCDCAS
   Marvin Lechner         : AUTO-CI (C++ implementation), FIC-MRCC
   Spencer Leger          : CASSCF response
   Dagmar Lenk            : GEPOL surface, SMD, ORCA-2-JSON
   Dimitrios Liakos       : Extrapolation schemes; Compound Job, initial MDCI parallelization
   Dimitrios Manganas     : Further ROCIS development; embedding schemes. LFT, Crystal Embedding
   Dimitrios Pantazis     : SARC Basis sets
   Anastasios Papadopoulos: AUTO-CI, single reference methods and gradients
   Taras Petrenko         : pre 6.0 DFT Hessian and TD-DFT gradient, (ASA, deprecated), ECA, 1-Electron XAS/XES, NRVS
   Peter Pinski           : DLPNO-MP2, DLPNO-MP2 Gradient
   Christoph Reimann      : Effective Core Potentials
   Marius Retegan         : Local ZFS, SOC
   Christoph Riplinger    : Optimizer, TS searches, QM/MM, DLPNO-CCSD(T), (RO)-DLPNO pert. Triples
   Michael Roemelt        : Original ROCIS implementation
   Masaaki Saitow         : Open-shell DLPNO-CCSD energy and density
   Barbara Sandhoefer     : DKH picture change effects
   Kantharuban Sivalingam : CASSCF convergence/infrastructure, NEVPT2 and variants, FIC-MRCI
   Bernardo de Souza      : ESD, SOC TD-DFT
   Georgi Stoychev        : AutoAux, RI-MP2 NMR, DLPNO-MP2 response, X2C
   Van Anh Tran           : RI-MP2 g-tensors
   Willem Van den Heuvel  : Paramagnetic NMR
   Zikuan Wang            : NOTCH, Electric field optimization 
   Frank Wennmohs         : Technical directorship and infrastructure
   Hang Xu                : AUTO-CI-Response properties 


 We gratefully acknowledge several colleagues who have allowed us to
 interface, adapt or use parts of their codes:
   Stefan Grimme, W. Hujo, H. Kruse, P. Pracht,  : VdW corrections, initial TS optimization,
                  C. Bannwarth, S. Ehlert,         DFT functionals, gCP, sTDA/sTD-DF
                  L. Wittmann, M. Mueller
   Ed Valeev, F. Pavosevic, A. Kumar             : LibInt (2-el integral package), F12 methods
   Garnet Chan, S. Sharma, J. Yang, R. Olivares  : DMRG
   Ulf Ekstrom                                   : XCFun DFT Library
   Mihaly Kallay                                 : mrcc  (arbitrary order and MRCC methods)
   Frank Weinhold                                : gennbo (NPA and NBO analysis)
   Simon Mueller                                 : openCOSMO-RS
   Christopher J. Cramer and Donald G. Truhlar   : smd solvation model
   Lars Goerigk                                  : TD-DFT with DH, B97 family of functionals
   V. Asgeirsson, H. Jonsson                     : NEB implementation
   FAccTs GmbH                                   : IRC, NEB, NEB-TS, DLPNO-Multilevel, CI-OPT
                                                   MM, QMMM, 2- and 3-layer-ONIOM, Crystal-QMMM,
                                                   LR-CPCM, SF, NACMEs, symmetry and pop. for TD-DFT,
                                                   nearIR, NL-DFT gradient (VV10), updates on ESD,
                                                   ML-optimized integration grids, MBIS, APM,
                                                   GOAT, DOCKER, SOLVATOR, interface openCOSMO-RS
   S Lehtola, MJT Oliveira, MAL Marques          : LibXC Library
   Liviu Ungur et al                             : ANISO software


 Your calculation uses the libint2 library for the computation of 2-el integrals
 For citations please refer to: http://libint.valeyev.net

 Your ORCA version has been built with support for libXC version: 6.2.2
 For citations please refer to: https://libxc.gitlab.io

 This ORCA versions uses:
   CBLAS   interface :  Fast vector & matrix operations
   LAPACKE interface :  Fast linear algebra routines
   SCALAPACK package :  Parallel linear algebra routines
   Shared memory     :  Shared parallel matrices
   BLAS/LAPACK       :  OpenBLAS 0.3.27  USE64BITINT DYNAMIC_ARCH NO_AFFINITY SkylakeX SINGLE_THREADED
        Core in use  :  SkylakeX
   Copyright (c) 2011-2014, The OpenBLAS Project


Your calculation utilizes the geometrical counterpoise correction gCP
Please cite in your paper:
H.Kruse, S. Grimme J.Chem.Phys., 136, (2012), 154101 
   

Your calculation utilizes the atom-pairwise dispersion correction
based on EEQ partial charges (D4)


================================================================================

----- Orbital basis set information -----
Your calculation utilizes the basis: def2-SV(P)
   F. Weigend and R. Ahlrichs, Phys. Chem. Chem. Phys. 7, 3297 (2005).

----- AuxJ basis set information -----
Your calculation utilizes the auxiliary basis: def2/J
   F. Weigend, Phys. Chem. Chem. Phys. 8, 1057 (2006).

================================================================================
                                        WARNINGS
                       Please study these warnings very carefully!
================================================================================


================================================================================
                                       INPUT FILE
================================================================================
NAME = sp.inp
|  1> ! pbe def2-sv(p) def2/J RI DEFGRID1 loosescf d4 GCP(DFT/SV(P)) printgap
|  2> %output
|  3>     printlevel normal
|  4> end
|  5> * xyz 0 1
|  6> C -2.4120310508 -0.1022601896 -2.14241e-05
|  7> C -1.8290500351 -1.3573829805 0.0001219499
|  8> C -0.4492459924 -1.4755119422 1.85258e-05
|  9> C 0.3346590856 -0.3378544267 5.06121e-05
| 10> C -0.2368470412 0.9357533182 5.12237e-05
| 11> C -1.6244503704 1.034649066 -0.0001065202
| 12> O 0.5763674079 2.0179009477 7.52626e-05
| 13> Cl 2.0715018036 -0.4738047835 -7.17636e-05
| 14> H -3.4857993988 -0.0036043346 0.0001163622
| 15> H -2.4403231279 -2.2448040259 -1.13595e-05
| 16> H 0.025536951 -2.4428013056 -0.0001169904
| 17> H -2.0834290442 2.0117935893 -8.78485e-05
| 18> H 0.0549472505 2.8360002601 6.65427e-05
| 19> *
| 20> 
| 21>                          ****END OF INPUT****
================================================================================

                       ****************************
                       * Single Point Calculation *
                       ****************************

---------------------------------
CARTESIAN COORDINATES (ANGSTROEM)
---------------------------------
  C     -2.412031   -0.102260   -0.000021
  C     -1.829050   -1.357383    0.000122
  C     -0.449246   -1.475512    0.000019
  C      0.334659   -0.337854    0.000051
  C     -0.236847    0.935753    0.000051
  C     -1.624450    1.034649   -0.000107
  O      0.576367    2.017901    0.000075
  Cl     2.071502   -0.473805   -0.000072
  H     -3.485799   -0.003604    0.000116
  H     -2.440323   -2.244804   -0.000011
  H      0.025537   -2.442801   -0.000117
  H     -2.083429    2.011794   -0.000088
  H      0.054947    2.836000    0.000067

----------------------------
CARTESIAN COORDINATES (A.U.)
----------------------------
  NO LB      ZA    FRAG     MASS         X           Y           Z
   0 C     6.0000    0    12.011   -4.558078   -0.193244   -0.000040
   1 C     6.0000    0    12.011   -3.456404   -2.565082    0.000230
   2 C     6.0000    0    12.011   -0.848952   -2.788313    0.000035
   3 C     6.0000    0    12.011    0.632414   -0.638452    0.000096
   4 C     6.0000    0    12.011   -0.447576    1.768318    0.000097
   5 C     6.0000    0    12.011   -3.069766    1.955203   -0.000201
   6 O     8.0000    0    15.999    1.089177    3.813280    0.000142
   7 Cl   17.0000    0    35.453    3.914571   -0.895361   -0.000136
   8 H     1.0000    0     1.008   -6.587206   -0.006811    0.000220
   9 H     1.0000    0     1.008   -4.611542   -4.242065   -0.000021
  10 H     1.0000    0     1.008    0.048258   -4.616225   -0.000221
  11 H     1.0000    0     1.008   -3.937110    3.801739   -0.000166
  12 H     1.0000    0     1.008    0.103835    5.359264    0.000126

--------------------------------
INTERNAL COORDINATES (ANGSTROEM)
--------------------------------
 C      0   0   0     0.000000000000     0.00000000     0.00000000
 C      1   0   0     1.383907549463     0.00000000     0.00000000
 C      2   1   0     1.384851493316   119.80730762     0.00000000
 C      3   2   1     1.381583075648   119.67553493     0.00000000
 C      4   3   2     1.395956998206   121.26393246     0.00000000
 C      1   2   3     1.383056756192   120.37418326     0.00000000
 O      5   4   3     1.353647381276   118.90858841   180.00039300
 Cl     4   3   2     1.742155314993   120.09318993   179.99973965
 H      1   2   3     1.078290991281   120.16347617   180.00358576
 H      2   1   3     1.077576411941   120.52617756   180.02006080
 H      3   2   1     1.077528456355   121.03690941   180.01512727
 H      6   1   2     1.079570675207   120.12805671   180.00800571
 H      7   5   4     0.970136828271   110.56417115   179.99960144

---------------------------
INTERNAL COORDINATES (A.U.)
---------------------------
 C      0   0   0     0.000000000000     0.00000000     0.00000000
 C      1   0   0     2.615206263150     0.00000000     0.00000000
 C      2   1   0     2.616990058520   119.80730762     0.00000000
 C      3   2   1     2.610813644236   119.67553493     0.00000000
 C      4   3   2     2.637976421340   121.26393246     0.00000000
 C      1   2   3     2.613598496873   120.37418326     0.00000000
 O      5   4   3     2.558022832511   118.90858841   180.00039300
 Cl     4   3   2     3.292196428093   120.09318993   179.99973965
 H      1   2   3     2.037674666195   120.16347617   180.00358576
 H      2   1   3     2.036324306942   120.52617756   180.02006080
 H      3   2   1     2.036233684018   121.03690941   180.01512727
 H      6   1   2     2.040092918354   120.12805671   180.00800571
 H      7   5   4     1.833292917864   110.56417115   179.99960144

---------------------
BASIS SET INFORMATION
---------------------
There are 4 groups of distinct atoms

 Group   1 Type C   : 7s4p1d contracted to 3s2p1d pattern {511/31/1}
 Group   2 Type O   : 7s4p1d contracted to 3s2p1d pattern {511/31/1}
 Group   3 Type Cl  : 10s7p1d contracted to 4s3p1d pattern {5311/511/1}
 Group   4 Type H   : 4s contracted to 2s pattern {31}

Atom   0C    basis set group =>   1
Atom   1C    basis set group =>   1
Atom   2C    basis set group =>   1
Atom   3C    basis set group =>   1
Atom   4C    basis set group =>   1
Atom   5C    basis set group =>   1
Atom   6O    basis set group =>   2
Atom   7Cl   basis set group =>   3
Atom   8H    basis set group =>   4
Atom   9H    basis set group =>   4
Atom  10H    basis set group =>   4
Atom  11H    basis set group =>   4
Atom  12H    basis set group =>   4
---------------------------------
AUXILIARY/J BASIS SET INFORMATION
---------------------------------
There are 4 groups of distinct atoms

 Group   1 Type C   : 12s5p4d2f1g contracted to 6s4p3d1f1g pattern {711111/2111/211/2/1}
 Group   2 Type O   : 12s5p4d2f1g contracted to 6s4p3d1f1g pattern {711111/2111/211/2/1}
 Group   3 Type Cl  : 14s5p5d2f1g contracted to 8s4p3d1f1g pattern {71111111/2111/311/2/1}
 Group   4 Type H   : 5s2p1d contracted to 3s1p1d pattern {311/2/1}

Atom   0C    basis set group =>   1
Atom   1C    basis set group =>   1
Atom   2C    basis set group =>   1
Atom   3C    basis set group =>   1
Atom   4C    basis set group =>   1
Atom   5C    basis set group =>   1
Atom   6O    basis set group =>   2
Atom   7Cl   basis set group =>   3
Atom   8H    basis set group =>   4
Atom   9H    basis set group =>   4
Atom  10H    basis set group =>   4
Atom  11H    basis set group =>   4
Atom  12H    basis set group =>   4
------------------------------------------------------------------------------
                             ORCA STARTUP CALCULATIONS
                           -- RI-GTO INTEGRALS CHOSEN --
------------------------------------------------------------------------------
------------------------------------------------------------------------------
                   ___                                                        
                  /   \      - P O W E R E D   B Y -                         
                 /     \                                                     
                 |  |  |   _    _      __       _____    __    __             
                 |  |  |  | |  | |    /  \     |  _  \  |  |  /  |          
                  \  \/   | |  | |   /    \    | | | |  |  | /  /          
                 / \  \   | |__| |  /  /\  \   | |_| |  |  |/  /          
                |  |  |   |  __  | /  /__\  \  |    /   |      \           
                |  |  |   | |  | | |   __   |  |    \   |  |\   \          
                \     /   | |  | | |  |  |  |  | |\  \  |  | \   \       
                 \___/    |_|  |_| |__|  |__|  |_| \__\ |__|  \__/        
                                                                              
                      - O R C A' S   B I G   F R I E N D -                    
                                      &                                       
                       - I N T E G R A L  F E E D E R -                       
                                                                              
 v1 FN, 2020, v2 2021, v3 2022-2024                                           
------------------------------------------------------------------------------


----------------------
SHARK INTEGRAL PACKAGE
----------------------

Number of atoms                             ...     13
Number of basis functions                   ...    126
Number of shells                            ...     60
Maximum angular momentum                    ...      2
Integral batch strategy                     ... SHARK/LIBINT Hybrid
RI-J (if used) integral strategy            ... SPLIT-RIJ (Revised 2003 algorithm where possible)
Printlevel                                  ...      1
Contraction scheme used                     ... SEGMENTED contraction
Prescreening option                         ... SCHWARTZ
   Thresh                                   ... 1.000e-09
   Tcut                                     ... 1.000e-10
   Tpresel                                  ... 1.000e-10 
Coulomb Range Separation                    ... NOT USED
Exchange Range Separation                   ... NOT USED
Multipole approximations                    ... NOT USED
Finite Nucleus Model                        ... NOT USED
CABS basis                                  ... NOT available
Auxiliary Coulomb fitting basis             ... AVAILABLE
   # of basis functions in Aux-J            ...    449
   # of shells in Aux-J                     ...    147
   Maximum angular momentum in Aux-J        ...      4
Auxiliary J/K fitting basis                 ... NOT available
Auxiliary Correlation fitting basis         ... NOT available
Auxiliary 'external' fitting basis          ... NOT available

Checking pre-screening integrals            ... done (  0.0 sec) Dimension = 60
Check shell pair data                       ... done (  0.0 sec)
Shell pair information
Shell pair cut-off parameter TPreSel        ...   1.0e-10
Total number of shell pairs                 ...      1830
Shell pairs after pre-screening             ...      1723
Total number of primitive shell pairs       ...      7632
Primitive shell pairs kept                  ...      5088
          la=0 lb=0:    576 shell pairs
          la=1 lb=0:    567 shell pairs
          la=1 lb=1:    150 shell pairs
          la=2 lb=0:    262 shell pairs
          la=2 lb=1:    132 shell pairs
          la=2 lb=2:     36 shell pairs

Calculating one electron integrals          ... done (  0.0 sec)
Calculating RI/J V-Matrix + Cholesky decomp.... done (  0.1 sec)
Calculating Nuclear repulsion               ... done (  0.0 sec) ENN=    406.972067568029 Eh

Diagonalization of the overlap matrix:
Smallest eigenvalue                        ... 2.266e-04
Time for diagonalization                   ...    0.004 sec
Threshold for overlap eigenvalues          ... 1.000e-07
Number of eigenvalues below threshold      ... 0
Time for construction of square roots      ...    0.016 sec
Total time needed                          ...    0.029 sec

-------------------
DFT GRID GENERATION
-------------------

General Integration Accuracy     IntAcc      ... 4.159
Radial Grid Type                 RadialGrid  ... OptM3 with GC (2021)
Angular Grid (max. ang.)         AngularGrid ... 3 (Lebedev-194)
Angular grid pruning method      GridPruning ... 4 (adaptive)
Weight generation scheme         WeightScheme... mBecke (2022)
Basis function cutoff            BFCut       ... 1.0000e-10
Integration weight cutoff        WCut        ... 1.0000e-14
Partially contracted basis set               ... off
Rotationally invariant grid construction     ... off
Angular grids for H and He will be reduced by one unit

Total number of grid points                  ...    34235
Total number of batches                      ...      541
Average number of points per batch           ...       63
Average number of grid points per atom       ...     2633
Initializing property integral containers    ... done (  0.0 sec)

SHARK setup successfully completed in   0.6 seconds

Maximum memory used throughout the entire STARTUP-calculation: 17.7 MB
-------------------------------------------------------------------------------
                                 ORCA GUESS
                   Start orbitals & Density for SCF / CASSCF
-------------------------------------------------------------------------------

------------
SCF SETTINGS
------------
Hamiltonian:
 Density Functional     Method          .... DFT(GTOs)
 Exchange Functional    Exchange        .... PBE
   PBE kappa parameter   XKappa         ....  0.804000
   PBE mue parameter    XMuePBE         ....  0.219520
 Correlation Functional Correlation     .... PBE
   PBE beta parameter  CBetaPBE         ....  0.066725
 LDA part of GGA corr.  LDAOpt          .... PW91-LDA
 Gradients option       PostSCFGGA      .... off
   NL short-range parameter             ....  6.400000
 RI-approximation to the Coulomb term is turned on
   Number of AuxJ basis functions       .... 449


General Settings:
 Integral files         IntName         .... sp
 Hartree-Fock type      HFTyp           .... RHF
 Total Charge           Charge          ....    0
 Multiplicity           Mult            ....    1
 Number of Electrons    NEL             ....   66
 Basis Dimension        Dim             ....  126
 Nuclear Repulsion      ENuc            ....    406.9720675680 Eh

Convergence Acceleration:
 AO-DIIS                CNVDIIS         .... on
   Start iteration      DIISMaxIt       ....    12
   Startup error        DIISStart       ....  0.200000
   # of expansion vecs  DIISMaxEq       ....     5
   Bias factor          DIISBfac        ....   1.050
   Max. coefficient     DIISMaxC        ....  10.000
 MO-DIIS                CNVKDIIS        .... off
 Trust-Rad. Augm. Hess. CNVTRAH         .... auto
   Auto Start mean grad. ratio tolernc. ....  1.125000
   Auto Start start iteration           ....    50
   Auto Start num. interpolation iter.  ....    10
   Max. Number of Micro iterations      ....    24
   Max. Number of Macro iterations      .... Maxiter - #DIIS iter
   Number of Davidson start vectors     ....     2
   Converg. threshold    (grad. norm)   ....   1.000e-04
   Grad. Scal. Fac. for Micro threshold ....   0.100
   Minimum threshold for Micro iter.    ....   1.000e-02
   NR start threshold (gradient norm)   ....   1.000e-04
   Initial trust radius                 ....   0.400
   Minimum AH scaling param. (alpha)    ....   1.000
   Maximum AH scaling param. (alpha)    .... 1000.000
   Quad. conv. algorithm                .... NR
   White noise on init. David. guess    .... on
   Maximum white noise                  ....   0.010
   Pseudo random numbers                .... off
   Inactive MOs                         .... canonical
   Orbital update algorithm             .... Taylor
   Preconditioner                       .... Diag
   Full preconditioner red. dimension   ....   250
 SOSCF                  CNVSOSCF        .... on
   Start iteration      SOSCFMaxIt      ....   150
   Startup grad/error   SOSCFStart      ....  0.003300
   Hessian update       SOSCFHessUp     .... L-BFGS
 Level Shifting         CNVShift        .... on
   Level shift para.    LevelShift      ....    0.2500
   Turn off err/grad.   ShiftErr        ....    0.0010
 Zerner damping         CNVZerner       .... off
 Static damping         CNVDamp         .... on
   Fraction old density DampFac         ....    0.7000
   Max. Damping (<1)    DampMax         ....    0.9800
   Min. Damping (>=0)   DampMin         ....    0.0000
   Turn off err/grad.   DampErr         ....    0.1000

SCF Procedure:
 Maximum # iterations   MaxIter         ....   125
 SCF integral mode      SCFMode         .... Direct
   Integral package                     .... SHARK and LIBINT hybrid scheme
 Reset frequency        DirectResetFreq ....    20
 Integral Threshold     Thresh          ....  1.000e-09 Eh
 Primitive CutOff       TCut            ....  1.000e-10 Eh

Convergence Tolerance:
 Convergence Check Mode ConvCheckMode   .... Total+1el-Energy
 Convergence forced     ConvForced      .... 0
 Energy Change          TolE            ....  1.000e-05 Eh
 1-El. energy change                    ....  1.000e-02 Eh
 Orbital Gradient       TolG            ....  1.000e-04
 Orbital Rotation angle TolX            ....  1.000e-04
 DIIS Error             TolErr          ....  5.000e-04

------------------------------
INITIAL GUESS: MODEL POTENTIAL
------------------------------
Loading Hartree-Fock densities                     ... done
Calculating cut-offs                               ... done
Initializing the effective Hamiltonian             ... done
Setting up the integral package (SHARK)            ... done
Starting the Coulomb interaction                   ... done (   0.1 sec)
Making the grid                                    ... done (   0.1 sec)
Mapping shells                                     ... done
Starting the XC term evaluation                    ... done (   0.1 sec)
  promolecular density results
     # of electrons  =     65.996319321
     EX              =    -67.731528177
     EC              =     -2.305642080
     EX+EC           =    -70.037170257
Transforming the Hamiltonian                       ... done (   0.0 sec)
Diagonalizing the Hamiltonian                      ... done (   0.0 sec)
Back transforming the eigenvectors                 ... done (   0.0 sec)
Now organizing SCF variables                       ... done
                      ------------------
                      INITIAL GUESS DONE (   0.4 sec)
                      ------------------
             **** ENERGY FILE WAS UPDATED (sp.en.tmp) ****
Finished Guess after   0.6 sec
Maximum memory used throughout the entire GUESS-calculation: 13.4 MB

-------------------------------------------------------------------------------------------
                                      ORCA LEAN-SCF
                              memory conserving SCF solver
-------------------------------------------------------------------------------------------

----------------------------------------D-I-I-S--------------------------------------------
Iteration    Energy (Eh)           Delta-E    RMSDP     MaxDP     DIISErr   Damp  Time(sec)
-------------------------------------------------------------------------------------------
               ***  Starting incremental Fock matrix formation  ***
    1    -765.9737541471722579     0.00e+00  4.31e-03  5.74e-02  1.78e-01  0.700   0.9
    2    -766.0460444212262701    -7.23e-02  2.98e-03  3.52e-02  8.00e-02  0.700   0.8
                               ***Turning on AO-DIIS***
    3    -766.0711264533999838    -2.51e-02  1.15e-03  1.35e-02  2.37e-02  0.700   0.6
    4    -766.0859443826861934    -1.48e-02  1.98e-03  2.67e-02  1.03e-02  0.000   0.9
    5    -766.1197552857856863    -3.38e-02  5.58e-04  8.99e-03  1.13e-02  0.000   0.7
                              *** Initializing SOSCF ***
---------------------------------------S-O-S-C-F--------------------------------------
Iteration    Energy (Eh)           Delta-E    RMSDP     MaxDP     MaxGrad    Time(sec)
--------------------------------------------------------------------------------------
    6    -766.1200983902951975    -3.43e-04  1.69e-04  2.48e-03  3.03e-03     1.4
               *** Restarting incremental Fock matrix formation ***
    7    -766.1201347924973106    -3.64e-05  1.22e-04  2.17e-03  2.42e-04     0.9
    8    -766.1201336078497661     1.18e-06  5.80e-05  9.02e-04  5.64e-04     0.9
                 **** Energy Check signals convergence ****

               *****************************************************
               *                     SUCCESS                       *
               *           SCF CONVERGED AFTER   8 CYCLES          *
               *****************************************************

             **** ENERGY FILE WAS UPDATED (sp.en.tmp) ****

----------------
TOTAL SCF ENERGY
----------------

Total Energy       :       -766.12013360784977 Eh          -20847.18869 eV

Components:
Nuclear Repulsion  :        406.97206756802899 Eh           11074.27296 eV
Electronic Energy  :      -1173.09220117587893 Eh          -31921.46165 eV
One Electron Energy:      -1858.02498569782119 Eh          -50559.43025 eV
Two Electron Energy:        684.93278452194238 Eh           18637.96860 eV

Virial components:
Potential Energy   :      -1528.89436276779361 Eh          -41603.33068 eV
Kinetic Energy     :        762.77422915994396 Eh           20756.14200 eV
Virial Ratio       :          2.00438649382739

DFT components:
N(Alpha)           :       32.999921895577 electrons
N(Beta)            :       32.999921895577 electrons
N(Total)           :       65.999843791154 electrons
E(X)               :      -68.379661212993 Eh       
E(C)               :       -2.318182526880 Eh       
E(XC)              :      -70.697843739873 Eh       

---------------
SCF CONVERGENCE
---------------

  Last Energy change         ...   -1.1846e-06  Tolerance :   1.0000e-05
  Last MAX-Density change    ...    9.0217e-04  Tolerance :   1.0000e-03
  Last RMS-Density change    ...    5.8007e-05  Tolerance :   1.0000e-04
  Last DIIS Error            ...    3.0346e-03  Tolerance :   5.0000e-04
  Last Orbital Gradient      ...    5.6408e-04  Tolerance :   1.0000e-04
  Last Orbital Rotation      ...    1.1280e-03  Tolerance :   1.0000e-04


----------------
ORBITAL ENERGIES
----------------

  NO   OCC          E(Eh)            E(eV) 
   0   2.0000    -100.632274     -2738.3434 
   1   2.0000     -18.792886      -511.3804 
   2   2.0000      -9.965438      -271.1733 
   3   2.0000      -9.944913      -270.6148 
   4   2.0000      -9.902712      -269.4665 
   5   2.0000      -9.902626      -269.4641 
   6   2.0000      -9.901265      -269.4271 
   7   2.0000      -9.896011      -269.2841 
   8   2.0000      -9.167780      -249.4680 
   9   2.0000      -6.999339      -190.4617 
  10   2.0000      -6.987798      -190.1477 
  11   2.0000      -6.987037      -190.1269 
  12   2.0000      -0.976249       -26.5651 
  13   2.0000      -0.804755       -21.8985 
  14   2.0000      -0.757624       -20.6160 
  15   2.0000      -0.677129       -18.4256 
  16   2.0000      -0.659502       -17.9460 
  17   2.0000      -0.579515       -15.7694 
  18   2.0000      -0.540319       -14.7028 
  19   2.0000      -0.506044       -13.7702 
  20   2.0000      -0.451343       -12.2817 
  21   2.0000      -0.434045       -11.8110 
  22   2.0000      -0.402633       -10.9562 
  23   2.0000      -0.388020       -10.5586 
  24   2.0000      -0.382795       -10.4164 
  25   2.0000      -0.352289        -9.5863 
  26   2.0000      -0.331428        -9.0186 
  27   2.0000      -0.312779        -8.5111 
  28   2.0000      -0.308769        -8.4020 
  29   2.0000      -0.291401        -7.9294 
  30   2.0000      -0.258653        -7.0383 
  31   2.0000      -0.225720        -6.1421 
  32   2.0000      -0.199427        -5.4267 
  33   0.0000      -0.042850        -1.1660 
  34   0.0000      -0.027801        -0.7565 
  35   0.0000       0.009877         0.2688 
  36   0.0000       0.015711         0.4275 
  37   0.0000       0.063800         1.7361 
  38   0.0000       0.081754         2.2246 
  39   0.0000       0.111390         3.0311 
  40   0.0000       0.116980         3.1832 
  41   0.0000       0.131904         3.5893 
  42   0.0000       0.192892         5.2489 
  43   0.0000       0.248272         6.7558 
*Only the first 10 virtual orbitals were printed.

                    ********************************
                    * MULLIKEN POPULATION ANALYSIS *
                    ********************************

-----------------------
MULLIKEN ATOMIC CHARGES
-----------------------
   0 C :   -0.035532
   1 C :   -0.059740
   2 C :   -0.095867
   3 C :    0.034859
   4 C :    0.213186
   5 C :   -0.191453
   6 O :   -0.312531
   7 Cl:   -0.068868
   8 H :    0.055926
   9 H :    0.056090
  10 H :    0.048658
  11 H :    0.032764
  12 H :    0.322508
Sum of atomic charges:   -0.0000000

--------------------------------
MULLIKEN REDUCED ORBITAL CHARGES
--------------------------------
  0 C s       :     3.178814  s :     3.178814
      pz      :     0.994681  p :     2.820985
      px      :     0.843890
      py      :     0.982414
      dz2     :     0.003147  d :     0.035733
      dxz     :     0.002025
      dyz     :     0.007542
      dx2y2   :     0.013652
      dxy     :     0.009368

  1 C s       :     3.182459  s :     3.182459
      pz      :     1.023731  p :     2.842309
      px      :     0.931416
      py      :     0.887162
      dz2     :     0.003173  d :     0.034971
      dxz     :     0.005210
      dyz     :     0.003505
      dx2y2   :     0.009941
      dxy     :     0.013143

  2 C s       :     3.302026  s :     3.302026
      pz      :     0.996139  p :     2.758891
      px      :     0.882375
      py      :     0.880378
      dz2     :     0.003275  d :     0.034951
      dxz     :     0.006468
      dyz     :     0.003222
      dx2y2   :     0.009275
      dxy     :     0.012712

  3 C s       :     2.944976  s :     2.944976
      pz      :     1.100696  p :     2.971429
      px      :     0.827491
      py      :     1.043243
      dz2     :     0.003592  d :     0.048735
      dxz     :     0.007786
      dyz     :     0.006688
      dx2y2   :     0.016658
      dxy     :     0.014011

  4 C s       :     2.943724  s :     2.943724
      pz      :     0.987380  p :     2.770074
      px      :     0.846333
      py      :     0.936361
      dz2     :     0.005099  d :     0.073017
      dxz     :     0.010970
      dyz     :     0.013947
      dx2y2   :     0.019392
      dxy     :     0.023608

  5 C s       :     3.276304  s :     3.276304
      pz      :     1.079417  p :     2.882151
      px      :     0.977546
      py      :     0.825189
      dz2     :     0.003356  d :     0.032997
      dxz     :     0.005845
      dyz     :     0.002742
      dx2y2   :     0.011933
      dxy     :     0.009123

  6 O s       :     3.740076  s :     3.740076
      pz      :     1.817022  p :     4.555769
      px      :     1.560662
      py      :     1.178084
      dz2     :     0.002810  d :     0.016686
      dxz     :     0.002140
      dyz     :     0.001056
      dx2y2   :     0.002130
      dxy     :     0.008551

  7 Cls       :     5.942087  s :     5.942087
      pz      :     3.911473  p :    11.090240
      px      :     3.236638
      py      :     3.942130
      dz2     :     0.004959  d :     0.036541
      dxz     :     0.010185
      dyz     :     0.000133
      dx2y2   :     0.015140
      dxy     :     0.006124

  8 H s       :     0.944074  s :     0.944074

  9 H s       :     0.943910  s :     0.943910

 10 H s       :     0.951342  s :     0.951342

 11 H s       :     0.967236  s :     0.967236

 12 H s       :     0.677492  s :     0.677492


------------------------
MULLIKEN OVERLAP CHARGES
------------------------
B(  0-C ,  1-C ) :   0.1885 B(  0-C ,  2-C ) :   0.3971 B(  0-C ,  3-C ) :  -0.4387 
B(  0-C ,  4-C ) :   0.4826 B(  0-C ,  5-C ) :   0.0966 B(  0-C ,  8-H ) :   0.8793 
B(  0-C ,  9-H ) :  -0.1857 B(  0-C , 11-H ) :  -0.1485 B(  1-C ,  2-C ) :   0.2214 
B(  1-C ,  3-C ) :   0.4305 B(  1-C ,  4-C ) :  -0.4630 B(  1-C ,  5-C ) :   0.3942 
B(  1-C ,  8-H ) :  -0.1771 B(  1-C ,  9-H ) :   0.8940 B(  1-C , 10-H ) :  -0.1745 
B(  2-C ,  3-C ) :   0.4795 B(  2-C ,  4-C ) :   0.3355 B(  2-C ,  5-C ) :  -0.3903 
B(  2-C ,  7-Cl) :  -0.1062 B(  2-C ,  9-H ) :  -0.1791 B(  2-C , 10-H ) :   0.8826 
B(  3-C ,  5-C ) :   0.2220 B(  3-C ,  6-O ) :  -0.1916 B(  3-C ,  7-Cl) :   0.4612 
B(  3-C , 10-H ) :  -0.1922 B(  4-C ,  5-C ) :   0.1712 B(  4-C ,  6-O ) :   0.9370 
B(  4-C ,  7-Cl) :  -0.1136 B(  4-C , 11-H ) :  -0.2001 B(  4-C , 12-H ) :  -0.0704 
B(  5-C ,  6-O ) :  -0.1739 B(  5-C ,  8-H ) :  -0.1656 B(  5-C , 11-H ) :   0.8509 
B(  6-O , 12-H ) :   0.5419 


                     *******************************
                     * LOEWDIN POPULATION ANALYSIS *
                     *******************************

----------------------
LOEWDIN ATOMIC CHARGES
----------------------
   0 C :   -0.120955
   1 C :   -0.141318
   2 C :   -0.132235
   3 C :   -0.154191
   4 C :    0.003251
   5 C :   -0.171079
   6 O :   -0.221906
   7 Cl:    0.127362
   8 H :    0.126503
   9 H :    0.126678
  10 H :    0.132134
  11 H :    0.123536
  12 H :    0.302219

-------------------------------
LOEWDIN REDUCED ORBITAL CHARGES
-------------------------------
  0 C s       :     2.887740  s :     2.887740
      pz      :     0.987640  p :     3.139236
      px      :     1.064418
      py      :     1.087178
      dz2     :     0.007147  d :     0.093979
      dxz     :     0.003391
      dyz     :     0.016797
      dx2y2   :     0.037532
      dxy     :     0.029113

  1 C s       :     2.886522  s :     2.886522
      pz      :     1.016738  p :     3.162537
      px      :     1.074009
      py      :     1.071790
      dz2     :     0.007185  d :     0.092258
      dxz     :     0.011054
      dyz     :     0.006912
      dx2y2   :     0.030365
      dxy     :     0.036742

  2 C s       :     2.895398  s :     2.895398
      pz      :     0.992786  p :     3.144416
      px      :     1.088011
      py      :     1.063619
      dz2     :     0.007486  d :     0.092421
      dxz     :     0.014132
      dyz     :     0.006228
      dx2y2   :     0.027994
      dxy     :     0.036581

  3 C s       :     2.902332  s :     2.902332
      pz      :     1.084147  p :     3.131835
      px      :     0.936377
      py      :     1.111311
      dz2     :     0.008456  d :     0.120024
      dxz     :     0.015096
      dyz     :     0.013891
      dx2y2   :     0.042420
      dxy     :     0.040160

  4 C s       :     2.839184  s :     2.839184
      pz      :     0.981241  p :     2.983009
      px      :     1.043045
      py      :     0.958723
      dz2     :     0.011841  d :     0.174555
      dxz     :     0.022354
      dyz     :     0.028225
      dx2y2   :     0.050822
      dxy     :     0.061314

  5 C s       :     2.891878  s :     2.891878
      pz      :     1.059733  p :     3.189771
      px      :     1.059200
      py      :     1.070839
      dz2     :     0.007613  d :     0.089430
      dxz     :     0.012386
      dyz     :     0.005174
      dx2y2   :     0.035072
      dxy     :     0.029185

  6 O s       :     3.506329  s :     3.506329
      pz      :     1.810664  p :     4.686164
      px      :     1.621158
      py      :     1.254341
      dz2     :     0.004537  d :     0.029414
      dxz     :     0.002429
      dyz     :     0.002150
      dx2y2   :     0.004245
      dxy     :     0.016053

  7 Cls       :     5.760319  s :     5.760319
      pz      :     3.895471  p :    11.069590
      px      :     3.259011
      py      :     3.915108
      dz2     :     0.005937  d :     0.042730
      dxz     :     0.011236
      dyz     :     0.000125
      dx2y2   :     0.018833
      dxy     :     0.006600

  8 H s       :     0.873497  s :     0.873497

  9 H s       :     0.873322  s :     0.873322

 10 H s       :     0.867866  s :     0.867866

 11 H s       :     0.876464  s :     0.876464

 12 H s       :     0.697781  s :     0.697781


---------------------------------
LOEWDIN BOND ORDERS (THRESH 0.050000)
---------------------------------
B(  0-C ,  1-C ) :   1.4959 B(  0-C ,  2-C ) :   0.0872 B(  0-C ,  3-C ) :   0.1061 
B(  0-C ,  4-C ) :   0.0910 B(  0-C ,  5-C ) :   1.5010 B(  0-C ,  8-H ) :   0.8868 
B(  1-C ,  2-C ) :   1.4894 B(  1-C ,  3-C ) :   0.0927 B(  1-C ,  4-C ) :   0.0983 
B(  1-C ,  5-C ) :   0.0885 B(  1-C ,  9-H ) :   0.8871 B(  2-C ,  3-C ) :   1.4776 
B(  2-C ,  4-C ) :   0.0903 B(  2-C ,  5-C ) :   0.1101 B(  2-C ,  7-Cl) :   0.1110 
B(  2-C , 10-H ) :   0.8806 B(  3-C ,  4-C ) :   1.3493 B(  3-C ,  5-C ) :   0.0901 
B(  3-C ,  6-O ) :   0.1038 B(  3-C ,  7-Cl) :   1.2435 B(  4-C ,  5-C ) :   1.4177 
B(  4-C ,  6-O ) :   1.3539 B(  4-C ,  7-Cl) :   0.1022 B(  5-C ,  6-O ) :   0.1174 
B(  5-C , 11-H ) :   0.8779 B(  6-O , 12-H ) :   0.8683 

------------------------------------------
LOEWDIN REDUCED ORBITAL POPULATIONS PER MO
-------------------------------------------
THRESHOLD FOR PRINTING IS 0.1%%
                      0         1         2         3         4         5   
                 -100.63227 -18.79289  -9.96544  -9.94491  -9.90271  -9.90263
                   2.00000   2.00000   2.00000   2.00000   2.00000   2.00000
                  --------  --------  --------  --------  --------  --------
 0 C  s               0.0       0.0       0.0       0.0       0.1       0.8
 1 C  px              0.0       0.0       0.0       0.0       0.1       0.0
 2 C  s               0.0       0.0       0.0       0.0      86.0      13.6
 2 C  py              0.0       0.0       0.0       0.1       0.0       0.0
 3 C  s               0.0       0.0       0.0      99.6       0.0       0.0
 3 C  py              0.0       0.0       0.1       0.0       0.1       0.0
 4 C  s               0.0       0.0      99.5       0.0       0.0       0.0
 4 C  px              0.0       0.0       0.0       0.0       0.0       0.1
 4 C  py              0.0       0.0       0.0       0.1       0.0       0.0
 5 C  s               0.0       0.0       0.0       0.0      13.5      85.2
 5 C  px              0.0       0.0       0.1       0.0       0.0       0.0
 6 O  s               0.0      99.9       0.0       0.0       0.0       0.0
 7 Cl s             100.0       0.0       0.0       0.0       0.0       0.0

                      6         7         8         9        10        11   
                  -9.90126  -9.89601  -9.16778  -6.99934  -6.98780  -6.98704
                   2.00000   2.00000   2.00000   2.00000   2.00000   2.00000
                  --------  --------  --------  --------  --------  --------
 0 C  s              98.6       0.1       0.0       0.0       0.0       0.0
 0 C  py              0.0       0.1       0.0       0.0       0.0       0.0
 1 C  s               0.1      99.5       0.0       0.0       0.0       0.0
 1 C  py              0.1       0.0       0.0       0.0       0.0       0.0
 2 C  px              0.0       0.1       0.0       0.0       0.0       0.0
 3 C  px              0.0       0.0       0.1       0.0       0.0       0.0
 5 C  s               0.9       0.0       0.0       0.0       0.0       0.0
 5 C  py              0.1       0.0       0.0       0.0       0.0       0.0
 7 Cl s               0.0       0.0      99.8       0.0       0.0       0.0
 7 Cl pz              0.0       0.0       0.0       0.0     100.0       0.0
 7 Cl px              0.0       0.0       0.0      99.1       0.0       0.9
 7 Cl py              0.0       0.0       0.0       0.9       0.0      99.1

                     12        13        14        15        16        17   
                  -0.97625  -0.80476  -0.75762  -0.67713  -0.65950  -0.57952
                   2.00000   2.00000   2.00000   2.00000   2.00000   2.00000
                  --------  --------  --------  --------  --------  --------
 0 C  s               0.1       3.7      12.3       0.3      15.6       1.6
 0 C  px              0.1       1.2       1.7       0.1       0.1       0.6
 0 C  py              0.0       0.0       0.0       9.1       0.0       7.6
 0 C  dz2             0.0       0.1       0.1       0.0       0.1       0.0
 0 C  dxy             0.0       0.0       0.0       0.3       0.0       0.1
 1 C  s               0.0       4.8       9.0      12.3       4.0       4.9
 1 C  px              0.0       1.0       0.0       2.6       4.2       4.6
 1 C  py              0.0       0.6       1.8       0.9       1.8       0.2
 1 C  dz2             0.0       0.1       0.1       0.1       0.0       0.0
 1 C  dx2y2           0.0       0.0       0.0       0.1       0.1       0.1
 2 C  s               0.1       9.9       2.4      16.6       3.2       4.7
 2 C  px              0.0       0.2       3.4       1.4       2.4       3.9
 2 C  py              0.1       2.7       0.1       0.2       1.2       0.1
 2 C  dz2             0.0       0.1       0.0       0.1       0.0       0.0
 2 C  dx2y2           0.0       0.0       0.0       0.1       0.1       0.0
 3 C  s               1.1      22.4       0.6       0.1       8.6       0.1
 3 C  px              0.0       0.6      12.8       0.4       6.4       0.4
 3 C  py              1.3       0.1       0.0       8.9       0.6      11.6
 3 C  dz2             0.0       0.3       0.0       0.0       0.0       0.0
 3 C  dx2y2           0.0       0.1       0.2       0.0       0.4       0.0
 3 C  dxy             0.0       0.0       0.0       0.3       0.0       0.1
 4 C  s              11.4       5.5       1.9       8.2       6.7       2.1
 4 C  px              2.9       0.1       4.9       4.0       1.1      12.0
 4 C  py              6.4       6.2       0.1       0.1       3.6       0.3
 4 C  dz2             0.4       0.0       0.0       0.0       0.0       0.0
 4 C  dx2y2           0.1       0.0       0.0       0.2       0.1       0.0
 4 C  dxy             0.6       0.1       0.0       0.1       0.0       0.1
 5 C  s               1.0       3.8      10.0      15.1       2.0       6.4
 5 C  px              1.5       0.3       0.0       0.9       6.6       0.0
 5 C  py              0.0       1.1       1.7       0.1       0.8       1.8
 5 C  dz2             0.0       0.0       0.1       0.1       0.0       0.0
 5 C  dx2y2           0.0       0.0       0.0       0.1       0.1       0.0
 5 C  dxy             0.0       0.0       0.0       0.0       0.2       0.0
 6 O  s              57.5       1.9       0.2       2.1       0.7       0.0
 6 O  px              3.5       0.1       0.1       0.3       0.0       0.4
 6 O  py              0.1       1.0       0.0       3.0       4.3      20.1
 6 O  dxy             0.0       0.0       0.0       0.1       0.1       0.2
 7 Cl s               0.1      26.1      31.2       0.5      16.0       0.1
 7 Cl px              0.1       2.1       0.5       0.0       0.9       0.0
 7 Cl py              0.0       0.0       0.0       0.1       0.0       0.6
 7 Cl dx2y2           0.0       0.2       0.1       0.0       0.0       0.0
 8 H  s               0.0       0.4       1.7       0.1       4.0       0.8
 9 H  s               0.0       0.6       1.2       2.7       1.0       2.2
10 H  s               0.0       1.5       0.2       3.6       0.5       2.3
11 H  s               0.2       0.4       1.4       3.4       0.7       3.8
12 H  s              11.0       0.7       0.0       1.4       1.5       6.1

                     18        19        20        21        22        23   
                  -0.54032  -0.50604  -0.45134  -0.43404  -0.40263  -0.38802
                   2.00000   2.00000   2.00000   2.00000   2.00000   2.00000
                  --------  --------  --------  --------  --------  --------
 0 C  s               6.5       1.8       0.2       0.8       0.9       0.2
 0 C  px              1.6       4.7       8.9       0.3       7.3      15.4
 0 C  py              0.6       5.3       3.5       9.8       1.4       0.1
 0 C  dx2y2           0.0       0.0       0.0       0.1       0.4       0.1
 0 C  dxy             0.0       0.0       0.0       0.1       0.1       0.2
 1 C  s               4.5       1.3       1.5       0.4       1.8       0.0
 1 C  px              1.8       0.2      14.5       3.9       0.4       0.5
 1 C  py              7.4       0.5       6.6      10.2       3.2       0.3
 1 C  dx2y2           0.1       0.0       0.0       0.0       0.0       0.4
 1 C  dxy             0.0       0.0       0.0       0.1       0.1       0.0
 2 C  s               0.9       4.2       0.9       0.0       0.7       0.4
 2 C  px              7.1       4.3       2.6       9.0       1.8       0.9
 2 C  py              6.3       4.3       0.4       2.7      16.4       9.6
 2 C  dx2y2           0.2       0.0       0.0       0.0       0.4       0.0
 2 C  dxy             0.1       0.0       0.2       0.0       0.1       0.1
 3 C  s               7.3       0.0       3.6       0.2       0.8       0.2
 3 C  px              0.1       1.6       3.0       0.5       1.6      14.4
 3 C  py              0.0       4.4       0.1      13.6       3.7       0.0
 3 C  dx2y2           0.0       0.2       0.0       0.0       0.3       0.1
 3 C  dxy             0.0       0.2       0.1       0.0       0.3       0.1
 4 C  s               1.8       0.4       0.4       0.4       2.8       0.0
 4 C  px              4.1       5.2       0.7       4.2       0.9       0.9
 4 C  py              7.3       6.7       0.2       9.2       2.9       0.5
 4 C  dx2y2           0.2       0.0       0.0       0.0       0.0       0.5
 4 C  dxy             0.0       0.3       0.8       0.3       0.0       0.1
 5 C  s               1.6       0.8       0.1       1.3       0.5       0.6
 5 C  px              6.2      10.6       1.1      10.1       3.3       1.1
 5 C  py              5.9       1.5      10.6       0.2       7.9      10.9
 5 C  dx2y2           0.1       0.0       0.1       0.1       0.5       0.0
 5 C  dxy             0.0       0.1       0.1       0.1       0.0       0.2
 6 O  s               1.2       0.1       1.5       0.8       0.1       0.0
 6 O  px              2.0       0.1       2.2       8.9       0.0       0.1
 6 O  py              5.3      19.6       3.9       2.6       1.6       0.0
 6 O  dxy             0.1       0.2       0.0       0.1       0.0       0.0
 7 Cl s               4.7       1.3       3.5       0.2       1.0       2.9
 7 Cl px              3.3       1.1      10.5       0.6       7.5      22.4
 7 Cl py              0.0       0.0       0.0       3.0       0.0       0.0
 7 Cl dx2y2           0.1       0.0       0.2       0.0       0.1       0.2
 7 Cl dxy             0.0       0.0       0.0       0.1       0.0       0.0
 8 H  s               3.9       3.7       2.2       0.5       6.9       7.5
 9 H  s               3.3       0.2      10.7       1.8       0.2       0.0
10 H  s               1.1       6.3       0.0       0.0      12.8       4.0
11 H  s               1.4       3.0       3.2       3.5       8.8       5.1
12 H  s               1.6       5.5       1.6       0.5       0.4       0.0

                     24        25        26        27        28        29   
                  -0.38280  -0.35229  -0.33143  -0.31278  -0.30877  -0.29140
                   2.00000   2.00000   2.00000   2.00000   2.00000   2.00000
                  --------  --------  --------  --------  --------  --------
 0 C  s               0.0       0.5       0.1       0.0       0.2       0.0
 0 C  pz              3.7       0.0       0.0       5.4       0.0      21.0
 0 C  px              0.0       3.0       0.0       0.0       8.3       0.0
 0 C  py              0.0       0.2      16.1       0.0       0.1       0.0
 0 C  dx2y2           0.0       0.4       0.0       0.0       0.8       0.0
 0 C  dxy             0.0       0.2       0.4       0.0       0.0       0.0
 1 C  pz              3.1       0.0       0.0      11.5       0.0      13.1
 1 C  px              0.0      14.1       0.1       0.0       4.9       0.0
 1 C  py              0.0       1.7      17.4       0.0       0.8       0.0
 1 C  dyz             0.0       0.0       0.0       0.0       0.0       0.1
 1 C  dx2y2           0.0       0.3       0.0       0.0       0.3       0.0
 1 C  dxy             0.0       0.3       1.0       0.0       0.0       0.0
 2 C  s               0.0       0.2       0.4       0.0       0.2       0.0
 2 C  pz              5.6       0.0       0.0      15.3       0.0       0.8
 2 C  px              0.0      11.0       0.2       0.0       4.2       0.0
 2 C  py              0.0       0.5       6.5       0.0       1.4       0.0
 2 C  dxz             0.0       0.0       0.0       0.0       0.0       0.2
 2 C  dx2y2           0.0       0.1       0.1       0.0       0.3       0.0
 2 C  dxy             0.0       0.1       0.9       0.0       0.1       0.0
 3 C  s               0.0       0.0       0.3       0.0       0.3       0.0
 3 C  pz             17.3       0.0       0.0      10.2       0.0       6.3
 3 C  px              0.0       3.2       0.2       0.0       1.3       0.0
 3 C  py              0.0       3.1       3.7       0.0       2.4       0.0
 3 C  dxz             0.0       0.0       0.0       0.0       0.0       0.3
 3 C  dyz             0.1       0.0       0.0       0.2       0.0       0.0
 3 C  dx2y2           0.0       0.2       0.0       0.0       0.6       0.0
 4 C  s               0.0       0.2       0.1       0.0       0.1       0.0
 4 C  pz             29.9       0.0       0.0       3.6       0.0       0.1
 4 C  px              0.0       0.4       0.2       0.0       9.9       0.0
 4 C  py              0.0       0.6       1.5       0.0       0.9       0.0
 4 C  dxz             0.0       0.0       0.0       0.1       0.0       0.3
 4 C  dyz             0.0       0.0       0.0       0.7       0.0       0.0
 4 C  dx2y2           0.0       0.3       0.1       0.0       1.0       0.0
 4 C  dxy             0.0       0.2       0.5       0.0       0.0       0.0
 5 C  s               0.0       1.3       0.1       0.0       0.2       0.0
 5 C  pz              9.4       0.0       0.0       0.1       0.0      12.1
 5 C  px              0.0       0.0       1.0       0.0      10.2       0.0
 5 C  py              0.0       0.0      10.5       0.0       0.1       0.0
 5 C  dxz             0.1       0.0       0.0       0.1       0.0       0.0
 5 C  dyz             0.0       0.0       0.0       0.0       0.0       0.1
 5 C  dx2y2           0.0       0.0       0.2       0.0       0.5       0.0
 5 C  dxy             0.0       0.1       0.4       0.0       0.0       0.0
 6 O  s               0.0       5.5       0.3       0.0       3.3       0.0
 6 O  pz             25.5       0.0       0.0      38.9       0.0       0.7
 6 O  px              0.0      29.3       9.4       0.0      23.7       0.0
 6 O  py              0.0       0.6       0.5       0.0       0.0       0.0
 7 Cl s               0.0       0.3       0.0       0.0       0.1       0.0
 7 Cl pz              4.8       0.0       0.0      13.5       0.0      44.6
 7 Cl px              0.0       5.8       0.1       0.0       7.0       0.0
 7 Cl py              0.0       0.9       3.3       0.0       0.5       0.0
 7 Cl dxz             0.1       0.0       0.0       0.1       0.0       0.1
 8 H  s               0.0       3.9       0.0       0.0       8.0       0.0
 9 H  s               0.0       8.1      10.7       0.0       0.4       0.0
10 H  s               0.0       0.2       7.4       0.0       3.2       0.0
11 H  s               0.0       0.3       6.0       0.0       2.1       0.0
12 H  s               0.0       2.2       0.3       0.0       2.1       0.0

                     30        31        32        33        34        35   
                  -0.25865  -0.22572  -0.19943  -0.04285  -0.02780   0.00988
                   2.00000   2.00000   2.00000   0.00000   0.00000   0.00000
                  --------  --------  --------  --------  --------  --------
 0 C  s               0.0       0.0       0.0       0.0       0.0       1.4
 0 C  pz              0.0      10.4       9.0      20.8      11.3       0.0
 0 C  px              0.1       0.0       0.0       0.0       0.0       0.1
 0 C  py              0.1       0.0       0.0       0.0       0.0       0.1
 0 C  dxz             0.0       0.0       0.0       0.3       0.1       0.0
 0 C  dyz             0.0       0.4       0.3       0.5       1.0       0.0
 1 C  s               0.1       0.0       0.0       0.0       0.0       1.2
 1 C  pz              0.0       5.8      17.3       0.2      30.6       0.0
 1 C  px              0.6       0.0       0.0       0.0       0.0       0.1
 1 C  py              0.1       0.0       0.0       0.0       0.0       0.7
 1 C  dxz             0.0       0.4       0.0       1.1       0.1       0.0
 1 C  dyz             0.0       0.1       0.0       0.5       0.3       0.0
 1 C  dxy             0.1       0.0       0.0       0.0       0.0       0.4
 2 C  s               0.5       0.0       0.0       0.0       0.0       0.8
 2 C  pz              0.0      27.9       0.0      25.3       6.7       0.0
 2 C  px              1.8       0.0       0.0       0.0       0.0       0.2
 2 C  py              0.5       0.0       0.0       0.0       0.0       1.4
 2 C  dxz             0.0       0.0       0.5       0.1       1.3       0.0
 2 C  dyz             0.0       0.0       0.1       0.5       0.1       0.0
 2 C  dx2y2           0.0       0.0       0.0       0.0       0.0       1.2
 2 C  dxy             0.0       0.0       0.0       0.0       0.0       0.6
 3 C  s               0.0       0.0       0.0       0.0       0.0       5.2
 3 C  pz              0.0       4.6      15.7      19.9       6.4       0.0
 3 C  px              0.1       0.0       0.0       0.0       0.0      16.6
 3 C  py              1.8       0.0       0.0       0.0       0.0       0.4
 3 C  dz2             0.0       0.0       0.0       0.0       0.0       0.5
 3 C  dxz             0.0       0.2       0.2       0.1       0.0       0.0
 3 C  dyz             0.0       0.3       0.1       0.6       1.3       0.0
 3 C  dx2y2           0.0       0.0       0.0       0.0       0.0       1.7
 3 C  dxy             0.9       0.0       0.0       0.0       0.0       0.1
 4 C  s               0.4       0.0       0.0       0.0       0.0       0.6
 4 C  pz              0.0       1.1      14.4       0.4      28.2       0.0
 4 C  px              0.4       0.0       0.0       0.0       0.0       1.1
 4 C  py              1.2       0.0       0.0       0.0       0.0       1.7
 4 C  dz2             0.0       0.0       0.0       0.0       0.0       0.1
 4 C  dxz             0.0       0.6       0.2       1.1       0.0       0.0
 4 C  dyz             0.0       0.0       0.7       0.6       0.0       0.0
 4 C  dx2y2           0.0       0.0       0.0       0.0       0.0       1.1
 4 C  dxy             0.0       0.0       0.0       0.0       0.0       1.4
 5 C  s               0.0       0.0       0.0       0.0       0.0       0.5
 5 C  pz              0.0      26.7       4.6      24.3       3.3       0.0
 5 C  px              0.0       0.0       0.0       0.0       0.0       0.4
 5 C  py              0.3       0.0       0.0       0.0       0.0       0.2
 5 C  dxz             0.0       0.0       0.4       0.1       1.4       0.0
 5 C  dyz             0.0       0.0       0.1       0.5       0.1       0.0
 5 C  dxy             0.1       0.0       0.0       0.0       0.0       0.8
 6 O  s               0.2       0.0       0.0       0.0       0.0       3.2
 6 O  pz              0.0       4.8      20.6       0.1       6.4       0.0
 6 O  px              0.9       0.0       0.0       0.0       0.0       2.5
 6 O  dyz             0.0       0.0       0.1       0.0       0.2       0.0
 7 Cl s               0.0       0.0       0.0       0.0       0.0       3.1
 7 Cl pz              0.0      16.5      15.5       2.5       0.9       0.0
 7 Cl px              1.0       0.0       0.0       0.0       0.0      20.1
 7 Cl py             87.3       0.0       0.0       0.0       0.0       0.5
 7 Cl dz2             0.0       0.0       0.0       0.0       0.0       1.2
 7 Cl dxz             0.0       0.0       0.2       0.7       0.3       0.0
 7 Cl dx2y2           0.0       0.0       0.0       0.0       0.0       3.6
 7 Cl dxy             0.0       0.0       0.0       0.0       0.0       0.1
 8 H  s               0.1       0.0       0.0       0.0       0.0       2.1
 9 H  s               0.5       0.0       0.0       0.0       0.0       3.3
10 H  s               0.2       0.0       0.0       0.0       0.0       6.8
11 H  s               0.4       0.0       0.0       0.0       0.0       1.9
12 H  s               0.0       0.0       0.0       0.0       0.0      10.1

                     36        37        38        39        40        41   
                   0.01571   0.06380   0.08175   0.11139   0.11698   0.13190
                   0.00000   0.00000   0.00000   0.00000   0.00000   0.00000
                  --------  --------  --------  --------  --------  --------
 0 C  s               0.2       3.7       0.6       0.0       2.0       6.4
 0 C  pz              0.0       0.0       0.0      14.9       0.0       0.0
 0 C  px              0.8       8.2       0.3       0.0       2.4       3.1
 0 C  py              0.2       0.2       0.4       0.0       0.2       0.2
 0 C  dz2             0.0       0.1       0.0       0.0       0.1       0.4
 0 C  dxz             0.0       0.0       0.0       0.7       0.0       0.0
 0 C  dx2y2           0.5       0.9       0.0       0.0       0.1       0.4
 0 C  dxy             0.0       0.0       0.1       0.0       0.1       0.0
 1 C  s               0.5       1.3       2.8       0.0       1.2       7.7
 1 C  pz              0.0       0.0       0.0      14.8       0.0       0.0
 1 C  px              0.2       2.3       2.2       0.0       0.1       1.5
 1 C  py              0.1       2.4       4.0       0.0       1.3       1.8
 1 C  dz2             0.0       0.0       0.0       0.0       0.1       0.5
 1 C  dxz             0.0       0.0       0.0       0.2       0.0       0.0
 1 C  dyz             0.0       0.0       0.0       0.4       0.0       0.0
 1 C  dx2y2           0.1       0.3       0.0       0.0       0.2       0.0
 1 C  dxy             0.2       0.3       0.3       0.0       0.0       0.6
 2 C  s               0.1       0.7       1.7       0.0       8.4       1.7
 2 C  pz              0.0       0.0       0.0      14.3       0.0       0.0
 2 C  px              0.0       0.2       1.3       0.0       1.4       0.1
 2 C  py              0.5       0.2       5.8       0.0       3.5       2.2
 2 C  dz2             0.0       0.0       0.0       0.0       0.4       0.1
 2 C  dxz             0.0       0.0       0.0       0.1       0.0       0.0
 2 C  dyz             0.0       0.0       0.0       0.6       0.0       0.0
 2 C  dx2y2           0.0       0.1       0.1       0.0       0.0       0.2
 2 C  dxy             0.1       0.0       0.3       0.0       0.2       0.0
 3 C  s               1.7       2.1       0.2       0.0       1.9       0.3
 3 C  pz              0.0       0.0       0.0      14.5       0.0       0.0
 3 C  px              1.0       8.7       0.2       0.0       1.0       0.3
 3 C  py              0.2       0.0       1.0       0.0       0.4       0.1
 3 C  dz2             0.2       0.2       0.1       0.0       0.4       0.0
 3 C  dxz             0.0       0.0       0.0       0.6       0.0       0.0
 3 C  dx2y2           0.0       0.0       0.1       0.0       0.3       0.0
 3 C  dxy             0.0       0.0       0.5       0.0       0.1       0.0
 4 C  s               0.1       0.4       0.4       0.0       0.1       0.3
 4 C  pz              0.0       0.0       0.0      18.1       0.0       0.0
 4 C  px              0.3       0.1       0.4       0.0       1.3       0.2
 4 C  py              0.0       0.7       2.0       0.0       0.2       0.1
 4 C  dyz             0.0       0.0       0.0       0.1       0.0       0.0
 4 C  dx2y2           0.2       0.1       0.0       0.0       0.1       0.0
 4 C  dxy             0.4       0.0       1.1       0.0       0.1       0.0
 5 C  s               2.6       0.6       2.0       0.0       3.3       1.5
 5 C  pz              0.0       0.0       0.0      15.4       0.0       0.0
 5 C  px              1.1       1.3       1.3       0.0       1.4       0.7
 5 C  py              3.8       1.2       5.3       0.0       1.8       0.7
 5 C  dz2             0.0       0.0       0.0       0.0       0.2       0.1
 5 C  dxz             0.0       0.0       0.0       0.2       0.0       0.0
 5 C  dyz             0.0       0.0       0.0       0.6       0.0       0.0
 5 C  dx2y2           0.2       0.4       0.0       0.0       0.1       0.0
 5 C  dxy             0.0       0.2       0.7       0.0       0.0       0.0
 6 O  s               5.7       0.9       1.2       0.0       0.6       0.6
 6 O  pz              0.0       0.0       0.0       2.1       0.0       0.0
 6 O  px              2.1       0.3       0.7       0.0       0.1       0.1
 6 O  py              7.7       0.5       0.1       0.0       0.0       0.1
 6 O  dyz             0.0       0.0       0.0       0.2       0.0       0.0
 7 Cl s               0.1       1.3       0.3       0.0       0.8       0.2
 7 Cl pz              0.0       0.0       0.0       0.7       0.0       0.0
 7 Cl px              1.7       7.6       0.2       0.0       1.9       0.0
 7 Cl py              0.0       0.0       0.0       0.0       0.3       0.1
 7 Cl dz2             0.1       0.7       0.0       0.0       0.2       0.0
 7 Cl dxz             0.0       0.0       0.0       1.3       0.0       0.0
 7 Cl dx2y2           0.6       2.6       0.0       0.0       0.7       0.2
 8 H  s               1.9      27.8       1.7       0.0      10.1      22.9
 9 H  s               1.9      10.8      19.7       0.0       5.4      25.2
10 H  s               0.6       0.4      19.6       0.0      30.0       9.9
11 H  s              13.9       5.2      19.1       0.0      14.3       7.9
12 H  s              48.3       4.7       2.1       0.0       1.3       1.3

                     42        43        44        45        46        47   
                   0.19289   0.24827   0.25317   0.25864   0.27784   0.31311
                   0.00000   0.00000   0.00000   0.00000   0.00000   0.00000
                  --------  --------  --------  --------  --------  --------
 0 C  s               0.2       1.2       0.2      11.6       2.0       6.6
 0 C  px              0.1       1.4       0.2       5.7       0.7       1.9
 0 C  py              4.0       1.6       3.8       1.4       8.6       1.6
 0 C  dz2             0.0       0.5       0.0       2.7       0.2       0.3
 0 C  dx2y2           0.4       0.1       0.2       2.2       1.4       0.2
 0 C  dxy             2.1       1.4       0.4       1.8       4.1       1.3
 1 C  s               2.0       5.7       2.4       0.4       0.6      11.3
 1 C  px              0.1       3.0       0.1      11.3       2.2       1.0
 1 C  py              1.4       1.7       2.5       3.1       2.9       0.8
 1 C  dz2             0.3       1.1       0.3       0.1       0.1       2.5
 1 C  dx2y2           0.0       0.1       0.2       9.4       0.0       0.3
 1 C  dxy             0.6       0.3       2.3       0.2       0.1       0.6
 2 C  s               0.1       1.3       4.5       7.0       0.7      14.4
 2 C  px              2.2       6.6       3.5       4.1       2.9       1.0
 2 C  py              0.8       0.3       5.4       1.3       1.0       4.3
 2 C  dz2             0.0       0.4       1.1       2.0       0.0       0.8
 2 C  dx2y2           0.7       4.8       0.2       0.2       1.9       0.1
 2 C  dxy             0.8       1.0       3.7       0.6       0.0       0.8
 3 C  s               5.3       8.5       4.0       2.2       5.5      16.3
 3 C  px              0.1       2.5       0.9       2.8       1.3       0.0
 3 C  py              0.4       3.8      10.0       0.4       0.8       1.1
 3 C  dz2             0.1       2.4       1.1       0.0       1.1       2.5
 3 C  dx2y2           0.9       1.2       0.1       0.2       2.2       0.2
 3 C  dxy             0.1       3.1       5.5       0.6       0.1       0.2
 4 C  s              16.0      10.0      14.4       1.0       3.2      11.1
 4 C  px              3.3       0.5       0.4       1.3       9.4       1.7
 4 C  py              8.5       7.7       0.4       0.9       2.4       1.0
 4 C  dz2             5.8       0.0       3.7       0.1       0.4       0.0
 4 C  dx2y2           0.0       0.3       0.9       0.3       3.1       0.2
 4 C  dxy             1.8       1.7       1.3       0.6       0.3       0.5
 5 C  s               6.0       1.5       2.2       2.7      13.1       3.3
 5 C  px              0.8       3.8       5.9       5.2       3.4       0.1
 5 C  py              0.0       0.9       1.2       4.3       2.0       1.8
 5 C  dz2             0.2       0.4       0.1       0.5       3.9       0.2
 5 C  dx2y2           1.6       1.4       0.6       2.8       2.2       0.0
 5 C  dxy             0.9       2.2       1.3       1.8       0.9       0.2
 6 O  s               4.1       0.4       0.2       0.0       0.3       0.3
 6 O  px              2.1       0.4       0.0       0.4       1.6       0.7
 6 O  py             13.3       1.0       0.7       0.2       2.1       2.7
 6 O  dz2             0.0       0.0       0.2       0.0       0.0       0.1
 6 O  dx2y2           0.0       0.2       0.0       0.0       0.6       0.1
 6 O  dxy             1.0       0.0       0.1       0.0       0.1       0.7
 7 Cl s               0.2       0.0       0.0       0.1       1.5       3.1
 7 Cl px              0.3       0.2       0.0       0.4       0.0       0.1
 7 Cl py              0.0       1.4       0.3       0.1       0.0       0.0
 7 Cl dz2             0.1       0.7       0.2       0.0       0.2       0.2
 7 Cl dx2y2           1.2       0.3       0.4       0.4       1.8       0.2
 7 Cl dxy             0.1       4.0       6.1       1.0       0.3       0.0
 8 H  s               0.4       1.7       1.0       1.6       1.1       0.3
 9 H  s               0.6       1.8       2.6       0.8       0.1       0.3
10 H  s               0.1       0.1       0.4       0.8       2.6       0.5
11 H  s               5.8       2.3       0.7       1.6       0.5       0.4
12 H  s               3.1       1.3       1.9       0.2       2.6       0.2

                     48        49        50        51        52        53   
                   0.35884   0.36484   0.39885   0.40800   0.42305   0.44254
                   0.00000   0.00000   0.00000   0.00000   0.00000   0.00000
                  --------  --------  --------  --------  --------  --------
 0 C  s              10.7      10.6       0.1       0.4       0.0      10.0
 0 C  pz              0.0       0.0       0.0       0.0      16.0       0.0
 0 C  px              1.1       0.3       0.2       1.2       0.0       0.0
 0 C  py              1.6       1.0      12.7       3.2       0.0       3.7
 0 C  dz2             0.6       3.3       0.0       0.3       0.0       5.9
 0 C  dx2y2           0.3       0.3       0.7       1.9       0.0       0.0
 0 C  dxy             0.4       0.5       0.4       0.4       0.0       0.0
 1 C  s               1.0      16.3       0.4       2.0       0.0       9.9
 1 C  pz              0.0       0.0       0.0       0.0      15.2       0.0
 1 C  px              1.0       0.5       6.6       6.4       0.0       1.5
 1 C  py              1.2       0.8       6.7       0.3       0.0       1.4
 1 C  dz2             0.4       1.5       0.1       0.7       0.0       6.2
 1 C  dx2y2           0.3       0.1       1.1       1.2       0.0       0.0
 1 C  dxy             0.5       0.9       1.5       1.0       0.0       0.0
 2 C  s               7.0       8.4       0.4       2.1       0.0       3.7
 2 C  pz              0.0       0.0       0.0       0.0      15.5       0.0
 2 C  px              1.1       2.1       5.2       5.3       0.0       7.5
 2 C  py              0.2       1.2       3.0       0.5       0.0       1.3
 2 C  dz2             2.3       2.8       0.0       1.1       0.0       0.0
 2 C  dx2y2           0.4       0.0       0.0       0.6       0.0       0.0
 2 C  dxy             0.4       1.0       1.1       0.3       0.0       0.2
 3 C  s              12.5       1.9       0.0       2.6       0.0       0.8
 3 C  pz              0.0       0.0       0.0       0.0      15.2       0.0
 3 C  px              2.4       0.5       2.5       8.5       0.0       0.3
 3 C  py              0.6       0.6       4.6       2.9       0.0       0.5
 3 C  dz2             1.0       0.6       0.1       0.3       0.0       0.0
 3 C  dx2y2           0.6       0.1       0.4       0.3       0.0       0.1
 3 C  dxy             0.0       0.0       1.9       0.7       0.0       0.0
 4 C  s               3.0       8.9       0.4       2.6       0.0       0.5
 4 C  pz              0.0       0.0       0.0       0.0      17.5       0.0
 4 C  px              0.9       1.9       3.9       0.8       0.0       1.8
 4 C  py              0.9       1.0       0.2       3.2       0.0       0.5
 4 C  dz2             0.0       0.0       0.5       1.5       0.0       0.0
 4 C  dx2y2           0.2       0.0       1.6       0.5       0.0       0.0
 4 C  dxy             0.0       0.0       0.0       0.8       0.0       0.0
 5 C  s              16.5       0.7       1.8       0.9       0.0       3.8
 5 C  pz              0.0       0.0       0.0       0.0      19.7       0.0
 5 C  px              0.1       0.7      11.6       0.1       0.0       5.7
 5 C  py              0.3       0.0       0.9       2.0       0.0       2.5
 5 C  dz2             4.0       0.0       0.7       0.0       0.0       0.1
 5 C  dx2y2           0.3       0.1       2.0       0.3       0.0       0.4
 5 C  dxy             0.0       0.0       0.5       2.1       0.0       0.1
 6 O  s               0.1       0.0       0.2       0.1       0.0       0.0
 6 O  pz              0.0       0.0       0.0       0.0       0.3       0.0
 6 O  px              0.0       1.0       0.9       0.0       0.0       0.0
 6 O  py              0.2       0.6       0.9       0.4       0.0       0.4
 6 O  dz2             0.1       0.2       0.1       0.0       0.0       0.0
 6 O  dx2y2           0.0       0.1       0.1       0.2       0.0       0.0
 6 O  dxy             0.0       0.4       0.7       0.1       0.0       0.0
 7 Cl s               3.8       4.8       2.3      12.5       0.0       2.2
 7 Cl pz              0.0       0.0       0.0       0.0       0.3       0.0
 7 Cl px              0.0       0.0       0.0       0.0       0.0       0.3
 7 Cl py              0.2       0.3       0.7       0.2       0.0       0.1
 7 Cl dz2             1.8       0.3       0.2       0.9       0.0       0.0
 7 Cl dxz             0.0       0.0       0.0       0.0       0.2       0.0
 7 Cl dx2y2           1.5       0.5       2.2       3.0       0.0       0.0
 7 Cl dxy             0.2       0.1       5.4       2.6       0.0       0.0
 8 H  s               1.1       8.7       0.4       6.0       0.0      13.3
 9 H  s               0.0       5.8       2.2       9.1       0.0      13.5
10 H  s               8.8       8.4       1.7       0.0       0.0       0.2
11 H  s               7.8       0.1       3.6       5.9       0.0       0.8
12 H  s               0.4       0.0       4.6       0.2       0.0       0.4

                     54        55        56        57        58        59   
                   0.45682   0.48774   0.48854   0.49107   0.49783   0.53943
                   0.00000   0.00000   0.00000   0.00000   0.00000   0.00000
                  --------  --------  --------  --------  --------  --------
 0 C  s               1.7       0.7       3.6       0.0       0.0       0.6
 0 C  pz              0.0       0.0       0.0       7.9      24.3       0.0
 0 C  px              0.0       0.0       0.1       0.0       0.0       0.3
 0 C  py             11.2       7.5       0.9       0.0       0.0       1.8
 0 C  dz2             0.5       0.3       0.0       0.0       0.0       0.0
 0 C  dxz             0.0       0.0       0.0       0.2       0.3       0.0
 0 C  dx2y2           0.3       0.1       0.4       0.0       0.0       0.1
 0 C  dxy             1.2       1.5       0.0       0.0       0.0       0.5
 1 C  s               4.0       0.1       0.0       0.0       0.0       3.0
 1 C  pz              0.0       0.0       0.0       5.8      27.3       0.0
 1 C  px              3.0       5.7       0.2       0.0       0.0       4.6
 1 C  py              2.8       3.0       0.4       0.0       0.0       1.1
 1 C  dz2             1.4       0.0       0.0       0.0       0.0       0.0
 1 C  dxz             0.0       0.0       0.0       0.1       0.1       0.0
 1 C  dyz             0.0       0.0       0.0       0.0       0.4       0.0
 1 C  dx2y2           0.2       2.2       0.0       0.0       0.0       0.4
 1 C  dxy             0.0       0.4       0.2       0.0       0.0       0.3
 2 C  s               4.3       1.3       2.6       0.0       0.0       0.8
 2 C  pz              0.0       0.0       0.0      34.4       0.2       0.0
 2 C  px              1.5       7.6       0.9       0.0       0.0       3.8
 2 C  py              0.4       0.8       0.1       0.0       0.0       0.6
 2 C  dz2             2.5       0.2       1.4       0.0       0.0       0.3
 2 C  dyz             0.0       0.0       0.0       0.4       0.0       0.0
 2 C  dx2y2           0.0       1.2       0.7       0.0       0.0       2.1
 2 C  dxy             0.2       0.5       0.1       0.0       0.0       0.1
 3 C  s               0.2       1.6       4.8       0.0       0.0       4.0
 3 C  pz              0.0       0.0       0.0       9.9      19.6       0.0
[...]
 3 C  dyz             0.0       1.7       0.0      12.5       0.0       0.0
 3 C  dx2y2           0.0       0.0       9.5       0.0       4.9      11.4
 3 C  dxy             8.5       0.0       0.0       0.0      18.8       2.3
 4 C  s               0.1       0.0       2.9       0.0       1.4       0.7
 4 C  px              0.9       0.0       0.1       0.0       0.1       3.6
 4 C  py              0.9       0.0       0.2       0.0       1.9       0.3
 4 C  dz2             0.7       0.0       2.9       0.0       0.2       0.2
 4 C  dxz             0.0       0.0       0.0      10.7       0.0       0.0
 4 C  dyz             0.0       0.0       0.0       5.1       0.0       0.0
 4 C  dx2y2           1.3       0.0       2.0       0.0       1.8       1.6
 4 C  dxy             0.0       0.0      19.2       0.0       0.3       0.5
 5 C  s               0.0       0.0       0.0       0.0       2.4       1.1
 5 C  px              1.2       0.0       1.5       0.0       0.5       1.2
 5 C  py              0.5       0.0       0.3       0.0       1.9       0.0
 5 C  dz2             0.0       0.0       0.8       0.0       1.4       1.6
 5 C  dxz             0.0       1.0       0.0      11.3       0.0       0.0
 5 C  dyz             0.0       1.1       0.0       2.4       0.0       0.0
 5 C  dx2y2           1.2       0.0       2.2       0.0       0.9      21.8
 5 C  dxy             4.1       0.0       5.0       0.0      12.8       0.1
 6 O  s               0.0       0.0       0.4       0.0       0.0       0.0
 6 O  px              0.0       0.0       0.1       0.0       0.0       0.0
 6 O  py              0.1       0.0       1.0       0.0       0.2       0.0
 6 O  dz2             0.2       0.0       0.4       0.0       0.1       0.0
 6 O  dxz             0.0      42.7       0.0      14.8       0.0       0.0
 6 O  dyz             0.0      26.9       0.0       7.8       0.0       0.0
 6 O  dx2y2          15.8       0.0       0.6       0.0       0.2       0.2
 6 O  dxy             0.1       0.0       5.7       0.0       0.2       0.0
 7 Cl s               0.4       0.0       0.0       0.0       0.0       0.3
 7 Cl px              0.2       0.0       0.1       0.0       0.0       0.2
 7 Cl dx2y2           0.1       0.0       0.2       0.0       0.0       0.3
 7 Cl dxy             0.1       0.0       0.0       0.0       0.4       0.0
 8 H  s               0.4       0.0       0.3       0.0       0.1       0.5
 9 H  s               0.5       0.0       1.0       0.0       0.0       0.0
10 H  s               0.3       0.0       0.2       0.0       0.2       0.5
11 H  s               0.1       0.0       0.2       0.0       0.2       0.4
12 H  s               0.2       0.0       0.4       0.0       0.2       0.0

                    120       121       122       123       124       125   
                   2.77961   2.84434   2.85161   3.12416   3.17306   3.42770
                   0.00000   0.00000   0.00000   0.00000   0.00000   0.00000
                  --------  --------  --------  --------  --------  --------
 0 C  s               0.7       0.0       0.0       0.5       1.0       0.4
 0 C  px              0.1       0.0       0.0       0.1       0.1       0.1
 0 C  py              2.4       0.0       0.9       0.6       0.1       0.0
 0 C  dz2             0.2       0.0       0.0       0.2       0.8       0.1
 0 C  dx2y2           1.4       0.0       1.5       1.2       8.7       5.1
 0 C  dxy            13.0       0.0       1.7       2.4       0.2       0.1
 1 C  s               0.0       0.0       0.2       0.1       0.9       0.5
 1 C  px              4.2       0.0       0.3       0.2       0.0       0.0
 1 C  py              1.8       0.0       0.4       0.0       0.1       0.0
 1 C  dz2             0.0       0.0       0.1       0.1       0.6       0.2
 1 C  dx2y2          20.0       0.0       1.1       1.7       0.8       0.5
 1 C  dxy             1.2       0.0       2.5       0.5      10.6       3.5
 2 C  s               0.7       0.0       0.0       0.0       1.4       0.3
 2 C  px              3.2       0.0       0.2       0.6       0.0       0.0
 2 C  py              0.1       0.0       0.1       0.2       0.2       0.0
 2 C  dz2             0.2       0.0       0.0       0.0       0.9       0.1
 2 C  dx2y2          14.4       0.0       0.4       1.7       2.2       2.0
 2 C  dxy             2.3       0.0       2.3       0.1       7.5       2.6
 3 C  s               0.3       0.0       0.1       0.2       0.8       0.5
 3 C  px              0.4       0.0       0.0       0.1       0.0       0.0
 3 C  py              0.6       0.0       0.8       1.3       0.5       0.2
 3 C  dz2             0.0       0.0       0.1       0.0       0.7       0.2
 3 C  dxz             0.0       0.9       0.0       0.0       0.0       0.0
 3 C  dx2y2           1.9       0.0       0.0       0.1       4.8       6.4
 3 C  dxy             1.9       0.0       1.1       6.9       1.1       0.3
 4 C  s               0.0       0.0       0.1       0.2       4.1       0.7
 4 C  pz              0.0       0.4       0.0       0.0       0.0       0.0
 4 C  px              1.1       0.0       0.4       0.7       0.2       1.0
 4 C  py              0.4       0.0       0.0       0.1       1.1       1.9
 4 C  dz2             0.1       0.0       1.6       0.1       3.0       0.3
 4 C  dxz             0.0       7.1       0.0       0.0       0.0       0.0
 4 C  dyz             0.0      11.6       0.0       0.0       0.0       0.0
 4 C  dx2y2           1.3       0.0       0.6      22.8       2.7       1.4
 4 C  dxy             0.3       0.0       0.4       3.0       0.0      17.3
 5 C  s               0.2       0.0       0.2       0.2       1.0       0.4
 5 C  px              0.3       0.0       0.2       2.0       0.1       0.1
 5 C  py              0.5       0.0       0.2       0.1       0.1       0.0
 5 C  dz2             0.0       0.0       0.0       0.0       0.9       0.1
 5 C  dxz             0.0       0.6       0.0       0.0       0.0       0.0
 5 C  dyz             0.0       0.5       0.0       0.0       0.0       0.0
 5 C  dx2y2           2.8       0.0       1.4       1.4       4.0       2.4
 5 C  dxy             0.0       0.0       0.4       6.9       1.5       5.1
 6 O  s               0.1       0.0       2.2       0.0       3.0       2.4
 6 O  pz              0.0       0.9       0.0       0.0       0.0       0.0
 6 O  px              0.4       0.0       1.6       0.3       0.3       0.6
 6 O  py              0.3       0.0       1.1       0.0       1.6       2.6
 6 O  dz2             8.0       0.0      51.7       0.0      11.1       5.6
 6 O  dxz             0.0      30.8       0.0       0.0       0.0       0.0
 6 O  dyz             0.0      47.0       0.0       0.0       0.0       0.0
 6 O  dx2y2          12.5       0.0       0.2      31.1       7.4       1.7
 6 O  dxy             0.3       0.0      17.3      11.0      12.4      32.0
 8 H  s               0.0       0.0       0.1       0.1       0.3       0.2
 9 H  s               0.0       0.0       0.1       0.1       0.5       0.2
10 H  s               0.1       0.0       0.0       0.0       0.3       0.2
11 H  s               0.1       0.0       0.0       0.1       0.2       0.3
12 H  s               0.2       0.0       6.4       0.8       0.0       0.5



                      *****************************
                      * MAYER POPULATION ANALYSIS *
                      *****************************

  NA   - Mulliken gross atomic population
  ZA   - Total nuclear charge
  QA   - Mulliken gross atomic charge
  VA   - Mayer's total valence
  BVA  - Mayer's bonded valence
  FA   - Mayer's free valence

  ATOM       NA         ZA         QA         VA         BVA        FA
  0 C      6.0355     6.0000    -0.0355     3.8041     3.8041     0.0000
  1 C      6.0597     6.0000    -0.0597     3.7874     3.7874     0.0000
  2 C      6.0959     6.0000    -0.0959     3.9283     3.9283     0.0000
  3 C      5.9651     6.0000     0.0349     3.9430     3.9430    -0.0000
  4 C      5.7868     6.0000     0.2132     4.1000     4.1000    -0.0000
  5 C      6.1915     6.0000    -0.1915     3.7860     3.7860    -0.0000
  6 O      8.3125     8.0000    -0.3125     2.1972     2.1972     0.0000
  7 Cl    17.0689    17.0000    -0.0689     1.1779     1.1779     0.0000
  8 H      0.9441     1.0000     0.0559     0.9500     0.9500     0.0000
  9 H      0.9439     1.0000     0.0561     0.9506     0.9506     0.0000
 10 H      0.9513     1.0000     0.0487     0.9726     0.9726    -0.0000
 11 H      0.9672     1.0000     0.0328     0.9647     0.9647    -0.0000
 12 H      0.6775     1.0000     0.3225     0.8722     0.8722    -0.0000

  Mayer bond orders larger than 0.100000
B(  0-C ,  1-C ) :   1.3686 B(  0-C ,  5-C ) :   1.3587 B(  0-C ,  8-H ) :   0.9643 
B(  1-C ,  2-C ) :   1.3451 B(  1-C ,  9-H ) :   0.9653 B(  2-C ,  3-C ) :   1.4394 
B(  2-C , 10-H ) :   0.9667 B(  3-C ,  4-C ) :   1.3771 B(  3-C ,  7-Cl) :   1.0075 
B(  4-C ,  5-C ) :   1.3159 B(  4-C ,  6-O ) :   1.2505 B(  5-C , 11-H ) :   0.9597 
B(  6-O , 12-H ) :   0.8378 

-------
TIMINGS
-------

Total SCF time: 0 days 0 hours 0 min 7 sec 

Total time                  ....       7.510 sec
Sum of individual times     ....       6.575 sec  ( 87.5%)

SCF preparation             ....       0.154 sec  (  2.1%)
Fock matrix formation       ....       5.731 sec  ( 76.3%)
  Startup                   ....       0.047 sec  (  0.8% of F)
  Split-RI-J                ....       1.573 sec  ( 27.5% of F)
  XC integration            ....       3.686 sec  ( 64.3% of F)
    XC Preparation          ....       0.000 sec  (  0.0% of XC)
    Basis function eval.    ....       0.670 sec  ( 18.2% of XC)
    Density eval.           ....       0.332 sec  (  9.0% of XC)
    XC-Functional eval.     ....       0.185 sec  (  5.0% of XC)
    XC-Potential eval.      ....       0.505 sec  ( 13.7% of XC)
Diagonalization             ....       0.000 sec  (  0.0%)
Density matrix formation    ....       0.148 sec  (  2.0%)
Total Energy calculation    ....       0.026 sec  (  0.3%)
Population analysis         ....       0.060 sec  (  0.8%)
Orbital Transformation      ....       0.049 sec  (  0.6%)
Orbital Orthonormalization  ....       0.000 sec  (  0.0%)
DIIS solution               ....       0.336 sec  (  4.5%)
  MO trafo                  ....       0.000 sec  (  0.0 % of DIIS)
  Orb grad                  ....       0.000 sec  (  0.0 % of DIIS)
  Energy W gradient         ....       0.000 sec  (  0.0 % of DIIS)
  DIIS error                ....       0.002 sec  (  0.7 % of DIIS)
  DIIS work                 ....       0.298 sec  ( 88.6 % of DIIS)
  Form Q                    ....       0.000 sec  (  0.0 % of DIIS)
  Form QpQm                 ....       0.000 sec  (  0.0 % of DIIS)
  Exp/Cayley                ....       0.000 sec  (  0.0 % of DIIS)
  Orb update                ....       0.000 sec  (  0.0 % of DIIS)
  Wake-sleep                ....       0.014 sec  (  4.1 % of DIIS)
SOSCF solution              ....       0.071 sec  (  0.9%)
  MO trafo                  ....       0.035 sec  ( 49.2 % of SOSCF)
  Orb grad                  ....       0.001 sec  (  1.7 % of SOSCF)
  Rot update                ....       0.021 sec  ( 29.9 % of SOSCF)
  Step                      ....       0.014 sec  ( 19.1 % of SOSCF)
Finished LeanSCF after   7.6 sec

Maximum memory used throughout the entire LEANSCF-calculation: 11.2 MB


-------------------------------------------------------------------------------
                          DFT DISPERSION CORRECTION                            
                                                                               
                                DFTD4 V3.4.0                                   
-------------------------------------------------------------------------------
The PBE functional is recognized
Active option DFTDOPT                   ...         5   

-------------------------   ----------------
Dispersion correction           -0.014725009
-------------------------   ----------------

------------------   -----------------
gCP correction             0.051159801
------------------   -----------------

-------------------------   --------------------
FINAL SINGLE POINT ENERGY      -766.083698816231
-------------------------   --------------------


------------------------------------------------------------------------------
                              ORCA PROPERTY CALCULATIONS
------------------------------------------------------------------------------

GBWName                                 ... sp.gbw
Number of atoms                         ...     13
Number of basis functions               ...    126
Max core memory                         ...   1024 MB

Electric properties:
Dipole moment                           ... YES
Quadrupole moment                       ...  NO
Static polarizability (Dipole/Dipole)   ...  NO
Static polarizability (Dipole/Quad.)    ...  NO
Static polarizability (Quad./Quad.)     ...  NO
Static polarizability (Velocity)        ...  NO

Atomic electric properties:
Dipole moment                           ...  NO
Quadrupole moment                       ...  NO
Static polarizability                   ...  NO

Choice of electric origin               ... Center of mass
Position of electric origin             ...    -0.000033    -0.000017    -0.000000

General magnetic properties:
Magnetizability                         ...  NO

EPR properties:
g-Tensor (aka g-matrix)                 ...  NO
Zero-Field splitting spin-orbit         ...  NO
Zero-field splitting spin-spin          ...  NO
Hyperfine couplings                     ...  NO (   0 nuclei)
Quadrupole couplings                    ...  NO (   0 nuclei)
Contact density                         ...  NO (   0 nuclei)

NMR properties:
Chemical shifts                         ...  NO (   0 nuclei)
Spin-rotation constants                 ...  NO (   0 nuclei)
Spin-spin couplings                     ...  NO (   0 nuclei,    0 pairs)

Choice of magnetic origin               ... GIAO
Position of magnetic origin             ...     0.000000     0.000000     0.000000

Properties with geometric perturbations:
SCF Hessian                             ...  NO
IR spectrum                             ...  NO
VCD spectrum                            ...  NO
X-ray spectroscopy properties:
SCF XES/XAS/RIXS spectra                ...  NO


-------------
DIPOLE MOMENT
-------------

Method             : SCF
Type of density    : Electron Density
Multiplicity       :   1
Irrep              :   0
Energy             :  -766.1201336078497661 Eh
Relativity type    : 
Basis              : AO
                                X                 Y                 Z
Electronic contribution:      9.349397835      -0.287096494      -0.000082050
Nuclear contribution   :    -10.210667117       0.812722144       0.000066200
                        -----------------------------------------
Total Dipole Moment    :     -0.861269282       0.525625650      -0.000015850
                        -----------------------------------------
Magnitude (a.u.)       :      1.008993112
Magnitude (Debye)      :      2.564656674



--------------------
Rotational spectrum 
--------------------
 
Rotational constants in cm-1:             0.099444             0.051664             0.034000 
Rotational constants in MHz :          2981.260011          1548.836635          1019.290557 

Dipole components along the rotational axes: 
x,y,z [a.u.] :     0.855342     0.535216    -0.000031 
x,y,z [Debye]:     2.174108     1.360412    -0.000078 

 

Dipole moment calculation done in   0.0 sec 

Maximum memory used throughout the entire PROP-calculation: 7.3 MB

--------------------------------
SUGGESTED CITATIONS FOR THIS RUN
--------------------------------

Below you find a list of papers that are relevant to this ORCA run
We neither can nor want to force you to cite these papers, but we appreciate if you do
You receive ORCA, which is the product of decades of hard work by many enthusiastic individuals, for free
The only thing we kindly ask in return is that you cite our papers,
We deeply appreciate it, if you show your appreciation for ORCA by not just citing the generic ORCA reference.

Please note that relegating all ORCA citations to the supporting information does *not* help us.
SI sections are not indexed - citations you put there will not count into any citation statistics
But we need these citations in order to attract the funding resources that allow us to do what we are doing

Therefore, if you are a happy ORCA user, please consider citing a few of the papers listed below in the main body of your paper

In addition to the list printed below, the program has created the file sp.bibtex that contains the list in bibtex format
You can import this file easily into all common literature databanks and citation aid programs


List of essential papers. We consider these as the minimum necessary citations

  1. Neese,F.
     Software update: the ORCA program system, version 5.0
     WIRES Comput. Molec. Sci., 2022 12(1)e1606
     doi.org/10.1002/wcms.1606

List of papers to cite with high priority. The work reported in these papers was absolutely
necessary for this run to complete.
Our perspective: the developers of density functionals and basis sets usually get cited in chemistry papers
Good! But without the algorithms to do something with them, the functionals or basis sets would not do anything.
Hence, in our opinion, the algorithm design and method developments papers are equally worthy of getting cited

  1. Neese,F.
     An improvement of the resolution of the identity approximation for the formation of the Coulomb matrix
     J. Comp. Chem., 2003 24(14)1740-1747
     doi.org/10.1002/jcc.10318
  2. Neese,F.
     The SHARK Integral Generation and Digestion System
     J. Comp. Chem., 2022  1-16
     doi.org/10.1002/jcc.26942
  3. Caldeweyher,E.; Bannwarth,C.; Grimme,S.
     Extension of the D3 dispersion coefficient model
     J. Chem. Phys., 2017 147 034112-XXXX
     doi.org/10.1063/1.4993215
  4. Caldeweyher,E.; Ehlert,S.; Hansen,A.; Neugebauer,H.; Spicher,S.; Bannwarth,C.; Grimme,S.
     A generally applicable atomic-charge dependent London dispersion correction
     J. Chem. Phys., 2019 150 154122-XXXX
     doi.org/10.1063/1.5090222
  5. Caldeweyher,E.; Mewes,J.; Ehlert,S.; Grimme,S.
     Extension and evaluation of the D4 London-dispersion model for periodic systems
     Phys. Chem. Chem. Phys., 2020 22(16)8499-8512
     doi.org/10.1039/D0CP00502A

List of suggested additional citations. These are papers that are important in the 'surrounding' of 
of this run, or papers that preceded the highly important papers. If you like your results we are grateful for a citation.

  1. Neese,F.
     The ORCA program system
     WIRES Comput. Molec. Sci., 2012 2(1)73-78
     doi.org/10.1002/wcms.81
  2. Neese,F.
     Software update: the ORCA program system, version 4.0
     WIRES Comput. Molec. Sci., 2018 8(1)1-6
     doi.org/10.1002/wcms.1327
  3. Neese,F.; Wennmohs,F.; Becker,U.; Riplinger,C.
     The ORCA quantum chemistry program package
     J. Chem. Phys., 2020 152 Art. No. L224108
     doi.org/10.1063/5.0004608

List of optional additional citations

  1. Neese,F.
     Approximate second-order SCF convergence for spin unrestricted wavefunctions
     Chem. Phys. Lett., 2000 325(1-3)93-98
     doi.org/10.1016/s0009-2614(00)00662-x

Timings for individual modules:

Sum of individual times          ...        8.952 sec (=   0.149 min)
Startup calculation              ...        0.636 sec (=   0.011 min)   7.1 %
SCF iterations                   ...        8.218 sec (=   0.137 min)  91.8 %
Property calculations            ...        0.098 sec (=   0.002 min)   1.1 %
                             ****ORCA TERMINATED NORMALLY****
TOTAL RUN TIME: 0 days 0 hours 0 minutes 9 seconds 811 msec
