
                                 *****************
                                 * O   R   C   A *
                                 *****************

                                            #,                                       
                                            ###                                      
                                            ####                                     
                                            #####                                    
                                            ######                                   
                                           ########,                                 
                                     ,,################,,,,,                         
                               ,,#################################,,                 
                          ,,##########################################,,             
                       ,#########################################, ''#####,          
                    ,#############################################,,   '####,        
                  ,##################################################,,,,####,       
                ,###########''''           ''''###############################       
              ,#####''   ,,,,##########,,,,          '''####'''          '####       
            ,##' ,,,,###########################,,,                        '##       
           ' ,,###''''                  '''############,,,                           
         ,,##''                                '''############,,,,        ,,,,,,###''
      ,#''                                            '''#######################'''  
     '                                                          ''''####''''         
             ,#######,   #######,   ,#######,      ##                                
            ,#'     '#,  ##    ##  ,#'     '#,    #''#        ,####,   ,####,        
            ##       ##  ##   ,#'  ##            #'  '#       #'       #'  '#        
            ##       ##  #######   ##           ,######,      #####,   #    #        
            '#,     ,#'  ##    ##  '#,     ,#' ,#      #,     #,   #   #,  ,#        
             '#######'   ##     ##  '#######'  #'      '#     '####' # '####'        



                #########################################################
                #                        -***-                          #
                #          Department of theory and spectroscopy        #
                #                                                       #
                #                      Frank Neese                      #
                #                                                       #
                #     Directorship, Architecture, Infrastructure        #
                #                    SHARK, DRIVERS                     #
                #        Core code/Algorithms in most modules           #
                #                                                       #
                #        Max Planck Institute fuer Kohlenforschung      #
                #                Kaiser Wilhelm Platz 1                 #
                #                 D-45470 Muelheim/Ruhr                 #
                #                      Germany                          #
                #                                                       #
                #                  All rights reserved                  #
                #                        -***-                          #
                #########################################################


                         Program Version 6.0.0  -   RELEASE  -


 With contributions from (in alphabetic order):
   Daniel Aravena         : Magnetic Suceptibility
   Michael Atanasov       : Ab Initio Ligand Field Theory (pilot matlab implementation)
   Alexander A. Auer      : GIAO ZORA, VPT2 properties, NMR spectrum
   Ute Becker             : All parallelization in ORCA, NUMFREQ, NUMCALC
   Giovanni Bistoni       : ED, misc. LED, open-shell LED, HFLD
   Martin Brehm           : Molecular dynamics
   Dmytro Bykov           : pre 5.0 version of the SCF Hessian
   Marcos Casanova-Páez   : Triplet and SCS-CIS(D). UHF-(DLPNO)-IP/EA/STEOM-CCSD. UHF-CVS-IP/STEOM-CCSD
   Vijay G. Chilkuri      : MRCI spin determinant printing, contributions to CSF-ICE
   Pauline Colinet        : FMM embedding
   Dipayan Datta          : RHF DLPNO-CCSD density
   Achintya Kumar Dutta   : EOM-CC, STEOM-CC
   Nicolas Foglia         : Exact transition moments, OPA infrastructure, MCD improvements
   Dmitry Ganyushin       : Spin-Orbit,Spin-Spin,Magnetic field MRCI
   Miquel Garcia          : C-PCM and meta-GGA Hessian, CCSD/C-PCM, Gaussian charge scheme
   Tiago L. C. Gouveia    : GS-ROHF, GS-ROCIS
   Yang Guo               : DLPNO-NEVPT2, F12-NEVPT2, CIM, IAO-localization
   Andreas Hansen         : Spin unrestricted coupled pair/coupled cluster methods
   Ingolf Harden          : AUTO-CI MPn and infrastructure 
   Benjamin Helmich-Paris : MC-RPA, TRAH-(SCF,CASSCF), AVAS, COSX integrals, SCF dyn. polar.
   Lee Huntington         : MR-EOM, pCC
   Robert Izsak           : Overlap fitted RIJCOSX, COSX-SCS-MP3, EOM
   Riya Kayal             : Wick's Theorem for AUTO-CI, AUTO-CI UHF-CCSDT
   Emily Kempfer          : AUTO-CI, RHF CISDT and CCSDT
   Christian Kollmar      : KDIIS, OOCD, Brueckner-CCSD(T), CCSD density, CASPT2, CASPT2-K, improved NEVPT2
   Axel Koslowski         : Symmetry handling
   Simone Kossmann        : Meta GGA functionals, TD-DFT gradient, OOMP2, (MP2 Hessian; deprecated post 5.0)
   Lucas Lang             : DCDCAS
   Marvin Lechner         : AUTO-CI (C++ implementation), FIC-MRCC
   Spencer Leger          : CASSCF response
   Dagmar Lenk            : GEPOL surface, SMD, ORCA-2-JSON
   Dimitrios Liakos       : Extrapolation schemes; Compound Job, initial MDCI parallelization
   Dimitrios Manganas     : Further ROCIS development; embedding schemes. LFT, Crystal Embedding
   Dimitrios Pantazis     : SARC Basis sets
   Anastasios Papadopoulos: AUTO-CI, single reference methods and gradients
   Taras Petrenko         : pre 6.0 DFT Hessian and TD-DFT gradient, (ASA, deprecated), ECA, 1-Electron XAS/XES, NRVS
   Peter Pinski           : DLPNO-MP2, DLPNO-MP2 Gradient
   Christoph Reimann      : Effective Core Potentials
   Marius Retegan         : Local ZFS, SOC
   Christoph Riplinger    : Optimizer, TS searches, QM/MM, DLPNO-CCSD(T), (RO)-DLPNO pert. Triples
   Michael Roemelt        : Original ROCIS implementation
   Masaaki Saitow         : Open-shell DLPNO-CCSD energy and density
   Barbara Sandhoefer     : DKH picture change effects
   Kantharuban Sivalingam : CASSCF convergence/infrastructure, NEVPT2 and variants, FIC-MRCI
   Bernardo de Souza      : ESD, SOC TD-DFT
   Georgi Stoychev        : AutoAux, RI-MP2 NMR, DLPNO-MP2 response, X2C
   Van Anh Tran           : RI-MP2 g-tensors
   Willem Van den Heuvel  : Paramagnetic NMR
   Zikuan Wang            : NOTCH, Electric field optimization 
   Frank Wennmohs         : Technical directorship and infrastructure
   Hang Xu                : AUTO-CI-Response properties 


 We gratefully acknowledge several colleagues who have allowed us to
 interface, adapt or use parts of their codes:
   Stefan Grimme, W. Hujo, H. Kruse, P. Pracht,  : VdW corrections, initial TS optimization,
                  C. Bannwarth, S. Ehlert,         DFT functionals, gCP, sTDA/sTD-DF
                  L. Wittmann, M. Mueller
   Ed Valeev, F. Pavosevic, A. Kumar             : LibInt (2-el integral package), F12 methods
   Garnet Chan, S. Sharma, J. Yang, R. Olivares  : DMRG
   Ulf Ekstrom                                   : XCFun DFT Library
   Mihaly Kallay                                 : mrcc  (arbitrary order and MRCC methods)
   Frank Weinhold                                : gennbo (NPA and NBO analysis)
   Simon Mueller                                 : openCOSMO-RS
   Christopher J. Cramer and Donald G. Truhlar   : smd solvation model
   Lars Goerigk                                  : TD-DFT with DH, B97 family of functionals
   V. Asgeirsson, H. Jonsson                     : NEB implementation
   FAccTs GmbH                                   : IRC, NEB, NEB-TS, DLPNO-Multilevel, CI-OPT
                                                   MM, QMMM, 2- and 3-layer-ONIOM, Crystal-QMMM,
                                                   LR-CPCM, SF, NACMEs, symmetry and pop. for TD-DFT,
                                                   nearIR, NL-DFT gradient (VV10), updates on ESD,
                                                   ML-optimized integration grids, MBIS, APM,
                                                   GOAT, DOCKER, SOLVATOR, interface openCOSMO-RS
   S Lehtola, MJT Oliveira, MAL Marques          : LibXC Library
   Liviu Ungur et al                             : ANISO software


 Your calculation uses the libint2 library for the computation of 2-el integrals
 For citations please refer to: http://libint.valeyev.net

 Your ORCA version has been built with support for libXC version: 6.2.2
 For citations please refer to: https://libxc.gitlab.io

 This ORCA versions uses:
   CBLAS   interface :  Fast vector & matrix operations
   LAPACKE interface :  Fast linear algebra routines
   SCALAPACK package :  Parallel linear algebra routines
   Shared memory     :  Shared parallel matrices
   BLAS/LAPACK       :  OpenBLAS 0.3.27  USE64BITINT DYNAMIC_ARCH NO_AFFINITY SkylakeX SINGLE_THREADED
        Core in use  :  SkylakeX
   Copyright (c) 2011-2014, The OpenBLAS Project


Your calculation utilizes the geometrical counterpoise correction gCP
Please cite in your paper:
H.Kruse, S. Grimme J.Chem.Phys., 136, (2012), 154101 
   

Your calculation utilizes the atom-pairwise dispersion correction
based on EEQ partial charges (D4)


================================================================================

----- Orbital basis set information -----
Your calculation utilizes the basis: def2-mTZVPP
   Stefan Grimme, Andreas Hansen, Sebastian Ehlert, and Jan-Michael Mewes 
   J. Chem. Phys. 154, 064103 (2021). DOI: 10.1063/5.0040021

----- AuxJ basis set information -----
Your calculation utilizes the auxiliary basis: def2/J
   F. Weigend, Phys. Chem. Chem. Phys. 8, 1057 (2006).

================================================================================
                                        WARNINGS
                       Please study these warnings very carefully!
================================================================================

Using LibXC functional ID 497 : Re-regularized SCAN exchange by Furness et al
[ 1]  J. W. Furness, A. D. Kaplan, J. Ning, J. P. Perdew, and J. Sun.,  J. Phys. Chem. Lett. 11, 8208-8215 (2020)
[ 2]  J. W. Furness, A. D. Kaplan, J. Ning, J. P. Perdew, and J. Sun.,  J. Phys. Chem. Lett. 11, 9248-9248 (2020)
Using LibXC functional ID 498 : Re-regularized SCAN correlation by Furness et al
[ 1]  J. W. Furness, A. D. Kaplan, J. Ning, J. P. Perdew, and J. Sun.,  J. Phys. Chem. Lett. 11, 8208-8215 (2020)
[ 2]  J. W. Furness, A. D. Kaplan, J. Ning, J. P. Perdew, and J. Sun.,  J. Phys. Chem. Lett. 11, 9248-9248 (2020)
Using LibXC functional ID 497 : Re-regularized SCAN exchange by Furness et al
[ 1]  J. W. Furness, A. D. Kaplan, J. Ning, J. P. Perdew, and J. Sun.,  J. Phys. Chem. Lett. 11, 8208-8215 (2020)
[ 2]  J. W. Furness, A. D. Kaplan, J. Ning, J. P. Perdew, and J. Sun.,  J. Phys. Chem. Lett. 11, 9248-9248 (2020)
Using LibXC functional ID 498 : Re-regularized SCAN correlation by Furness et al
[ 1]  J. W. Furness, A. D. Kaplan, J. Ning, J. P. Perdew, and J. Sun.,  J. Phys. Chem. Lett. 11, 8208-8215 (2020)
[ 2]  J. W. Furness, A. D. Kaplan, J. Ning, J. P. Perdew, and J. Sun.,  J. Phys. Chem. Lett. 11, 9248-9248 (2020)

================================================================================
                                       INPUT FILE
================================================================================
NAME = sp_gas.inp
|  1> ! r2scan-3c def2/J RI DEFGRID2 scfconv6 printgap
|  2> %output
|  3>     printlevel normal
|  4> end
|  5> * xyz 0 1
|  6> C -2.4120310508 -0.1022601896 -2.14241e-05
|  7> C -1.8290500351 -1.3573829805 0.0001219499
|  8> C -0.4492459924 -1.4755119422 1.85258e-05
|  9> C 0.3346590856 -0.3378544267 5.06121e-05
| 10> C -0.2368470412 0.9357533182 5.12237e-05
| 11> C -1.6244503704 1.034649066 -0.0001065202
| 12> O 0.5763674079 2.0179009477 7.52626e-05
| 13> Cl 2.0715018036 -0.4738047835 -7.17636e-05
| 14> H -3.4857993988 -0.0036043346 0.0001163622
| 15> H -2.4403231279 -2.2448040259 -1.13595e-05
| 16> H 0.025536951 -2.4428013056 -0.0001169904
| 17> H -2.0834290442 2.0117935893 -8.78485e-05
| 18> H 0.0549472505 2.8360002601 6.65427e-05
| 19> *
| 20> 
| 21>                          ****END OF INPUT****
================================================================================

                       ****************************
                       * Single Point Calculation *
                       ****************************

---------------------------------
CARTESIAN COORDINATES (ANGSTROEM)
---------------------------------
  C     -2.412031   -0.102260   -0.000021
  C     -1.829050   -1.357383    0.000122
  C     -0.449246   -1.475512    0.000019
  C      0.334659   -0.337854    0.000051
  C     -0.236847    0.935753    0.000051
  C     -1.624450    1.034649   -0.000107
  O      0.576367    2.017901    0.000075
  Cl     2.071502   -0.473805   -0.000072
  H     -3.485799   -0.003604    0.000116
  H     -2.440323   -2.244804   -0.000011
  H      0.025537   -2.442801   -0.000117
  H     -2.083429    2.011794   -0.000088
  H      0.054947    2.836000    0.000067

----------------------------
CARTESIAN COORDINATES (A.U.)
----------------------------
  NO LB      ZA    FRAG     MASS         X           Y           Z
   0 C     6.0000    0    12.011   -4.558078   -0.193244   -0.000040
   1 C     6.0000    0    12.011   -3.456404   -2.565082    0.000230
   2 C     6.0000    0    12.011   -0.848952   -2.788313    0.000035
   3 C     6.0000    0    12.011    0.632414   -0.638452    0.000096
   4 C     6.0000    0    12.011   -0.447576    1.768318    0.000097
   5 C     6.0000    0    12.011   -3.069766    1.955203   -0.000201
   6 O     8.0000    0    15.999    1.089177    3.813280    0.000142
   7 Cl   17.0000    0    35.453    3.914571   -0.895361   -0.000136
   8 H     1.0000    0     1.008   -6.587206   -0.006811    0.000220
   9 H     1.0000    0     1.008   -4.611542   -4.242065   -0.000021
  10 H     1.0000    0     1.008    0.048258   -4.616225   -0.000221
  11 H     1.0000    0     1.008   -3.937110    3.801739   -0.000166
  12 H     1.0000    0     1.008    0.103835    5.359264    0.000126

--------------------------------
INTERNAL COORDINATES (ANGSTROEM)
--------------------------------
 C      0   0   0     0.000000000000     0.00000000     0.00000000
 C      1   0   0     1.383907549463     0.00000000     0.00000000
 C      2   1   0     1.384851493316   119.80730762     0.00000000
 C      3   2   1     1.381583075648   119.67553493     0.00000000
 C      4   3   2     1.395956998206   121.26393246     0.00000000
 C      1   2   3     1.383056756192   120.37418326     0.00000000
 O      5   4   3     1.353647381276   118.90858841   180.00039300
 Cl     4   3   2     1.742155314993   120.09318993   179.99973965
 H      1   2   3     1.078290991281   120.16347617   180.00358576
 H      2   1   3     1.077576411941   120.52617756   180.02006080
 H      3   2   1     1.077528456355   121.03690941   180.01512727
 H      6   1   2     1.079570675207   120.12805671   180.00800571
 H      7   5   4     0.970136828271   110.56417115   179.99960144

---------------------------
INTERNAL COORDINATES (A.U.)
---------------------------
 C      0   0   0     0.000000000000     0.00000000     0.00000000
 C      1   0   0     2.615206263150     0.00000000     0.00000000
 C      2   1   0     2.616990058520   119.80730762     0.00000000
 C      3   2   1     2.610813644236   119.67553493     0.00000000
 C      4   3   2     2.637976421340   121.26393246     0.00000000
 C      1   2   3     2.613598496873   120.37418326     0.00000000
 O      5   4   3     2.558022832511   118.90858841   180.00039300
 Cl     4   3   2     3.292196428093   120.09318993   179.99973965
 H      1   2   3     2.037674666195   120.16347617   180.00358576
 H      2   1   3     2.036324306942   120.52617756   180.02006080
 H      3   2   1     2.036233684018   121.03690941   180.01512727
 H      6   1   2     2.040092918354   120.12805671   180.00800571
 H      7   5   4     1.833292917864   110.56417115   179.99960144

---------------------
BASIS SET INFORMATION
---------------------
There are 4 groups of distinct atoms

 Group   1 Type C   : 11s6p1d contracted to 5s3p1d pattern {62111/411/1}
 Group   2 Type O   : 11s6p2d contracted to 5s3p2d pattern {62111/411/11}
 Group   3 Type Cl  : 14s9p2d contracted to 5s4p2d pattern {73211/6111/11}
 Group   4 Type H   : 4s1p contracted to 2s1p pattern {31/1}

Atom   0C    basis set group =>   1
Atom   1C    basis set group =>   1
Atom   2C    basis set group =>   1
Atom   3C    basis set group =>   1
Atom   4C    basis set group =>   1
Atom   5C    basis set group =>   1
Atom   6O    basis set group =>   2
Atom   7Cl   basis set group =>   3
Atom   8H    basis set group =>   4
Atom   9H    basis set group =>   4
Atom  10H    basis set group =>   4
Atom  11H    basis set group =>   4
Atom  12H    basis set group =>   4
---------------------------------
AUXILIARY/J BASIS SET INFORMATION
---------------------------------
There are 4 groups of distinct atoms

 Group   1 Type C   : 12s5p4d2f1g contracted to 6s4p3d1f1g pattern {711111/2111/211/2/1}
 Group   2 Type O   : 12s5p4d2f1g contracted to 6s4p3d1f1g pattern {711111/2111/211/2/1}
 Group   3 Type Cl  : 14s5p5d2f1g contracted to 8s4p3d1f1g pattern {71111111/2111/311/2/1}
 Group   4 Type H   : 5s2p1d contracted to 3s1p1d pattern {311/2/1}

Atom   0C    basis set group =>   1
Atom   1C    basis set group =>   1
Atom   2C    basis set group =>   1
Atom   3C    basis set group =>   1
Atom   4C    basis set group =>   1
Atom   5C    basis set group =>   1
Atom   6O    basis set group =>   2
Atom   7Cl   basis set group =>   3
Atom   8H    basis set group =>   4
Atom   9H    basis set group =>   4
Atom  10H    basis set group =>   4
Atom  11H    basis set group =>   4
Atom  12H    basis set group =>   4

Checking for AutoStart:
The File: sp_gas.gbw exists
Trying to determine its content:
     ... Fine, the file contains calculation information
     ... Fine, the calculation information was read
     ... Fine, the file contains a basis set
     ... Fine, the basis set was read
     ... Fine, the file contains a geometry
     ... Fine, the geometry was read
     ... Fine, the file contains a set of orbitals
     ... Fine, the orbitals can be read
     => possible old guess file was deleted
     => GBW file was renamed to GES file
     => GES file is set as startup file
     => Guess is set to MORead
     ... now leaving AutoStart

------------------------------------------------------------------------------
                             ORCA STARTUP CALCULATIONS
                           -- RI-GTO INTEGRALS CHOSEN --
------------------------------------------------------------------------------
------------------------------------------------------------------------------
                   ___                                                        
                  /   \      - P O W E R E D   B Y -                         
                 /     \                                                     
                 |  |  |   _    _      __       _____    __    __             
                 |  |  |  | |  | |    /  \     |  _  \  |  |  /  |          
                  \  \/   | |  | |   /    \    | | | |  |  | /  /          
                 / \  \   | |__| |  /  /\  \   | |_| |  |  |/  /          
                |  |  |   |  __  | /  /__\  \  |    /   |      \           
                |  |  |   | |  | | |   __   |  |    \   |  |\   \          
                \     /   | |  | | |  |  |  |  | |\  \  |  | \   \       
                 \___/    |_|  |_| |__|  |__|  |_| \__\ |__|  \__/        
                                                                              
                      - O R C A' S   B I G   F R I E N D -                    
                                      &                                       
                       - I N T E G R A L  F E E D E R -                       
                                                                              
 v1 FN, 2020, v2 2021, v3 2022-2024                                           
------------------------------------------------------------------------------


----------------------
SHARK INTEGRAL PACKAGE
----------------------

Number of atoms                             ...     13
Number of basis functions                   ...    190
Number of shells                            ...     90
Maximum angular momentum                    ...      2
Integral batch strategy                     ... SHARK/LIBINT Hybrid
RI-J (if used) integral strategy            ... SPLIT-RIJ (Revised 2003 algorithm where possible)
Printlevel                                  ...      1
Contraction scheme used                     ... SEGMENTED contraction
Prescreening option                         ... SCHWARTZ
   Thresh                                   ... 1.000e-10
   Tcut                                     ... 1.000e-11
   Tpresel                                  ... 1.000e-11 
Coulomb Range Separation                    ... NOT USED
Exchange Range Separation                   ... NOT USED
Multipole approximations                    ... NOT USED
Finite Nucleus Model                        ... NOT USED
CABS basis                                  ... NOT available
Auxiliary Coulomb fitting basis             ... AVAILABLE
   # of basis functions in Aux-J            ...    449
   # of shells in Aux-J                     ...    147
   Maximum angular momentum in Aux-J        ...      4
Auxiliary J/K fitting basis                 ... NOT available
Auxiliary Correlation fitting basis         ... NOT available
Auxiliary 'external' fitting basis          ... NOT available

Checking pre-screening integrals            ... done (  0.0 sec) Dimension = 90
Check shell pair data                       ... done (  0.0 sec)
Shell pair information
Shell pair cut-off parameter TPreSel        ...   1.0e-11
Total number of shell pairs                 ...      4095
Shell pairs after pre-screening             ...      3711
Total number of primitive shell pairs       ...     15962
Primitive shell pairs kept                  ...     10208
          la=0 lb=0:   1095 shell pairs
          la=1 lb=0:   1370 shell pairs
          la=1 lb=1:    439 shell pairs
          la=2 lb=0:    464 shell pairs
          la=2 lb=1:    288 shell pairs
          la=2 lb=2:     55 shell pairs

Calculating one electron integrals          ... done (  0.0 sec)
Calculating RI/J V-Matrix + Cholesky decomp.... done (  0.1 sec)
Calculating Nuclear repulsion               ... done (  0.0 sec) ENN=    406.972067568029 Eh

Diagonalization of the overlap matrix:
Smallest eigenvalue                        ... 2.787e-05
Time for diagonalization                   ...    0.004 sec
Threshold for overlap eigenvalues          ... 1.000e-07
Number of eigenvalues below threshold      ... 0
Time for construction of square roots      ...    0.014 sec
Total time needed                          ...    0.027 sec

-------------------
DFT GRID GENERATION
-------------------

General Integration Accuracy     IntAcc      ... 4.388
Radial Grid Type                 RadialGrid  ... OptM3 with GC (2021)
Angular Grid (max. ang.)         AngularGrid ... 4 (Lebedev-302)
Angular grid pruning method      GridPruning ... 4 (adaptive)
Weight generation scheme         WeightScheme... mBecke (2022)
Basis function cutoff            BFCut       ... 1.0000e-10
Integration weight cutoff        WCut        ... 1.0000e-14
Partially contracted basis set               ... off
Rotationally invariant grid construction     ... off
Angular grids for H and He will be reduced by one unit
Diffuse basis detected: some atoms will have their outermost
                        angular grid increased by 1.

Total number of grid points                  ...    65887
Total number of batches                      ...     1039
Average number of points per batch           ...       63
Average number of grid points per atom       ...     5068
Initializing property integral containers    ... done (  0.0 sec)

SHARK setup successfully completed in   1.1 seconds

Maximum memory used throughout the entire STARTUP-calculation: 30.8 MB
-------------------------------------------------------------------------------
                                 ORCA GUESS
                   Start orbitals & Density for SCF / CASSCF
-------------------------------------------------------------------------------

------------
SCF SETTINGS
------------
Hamiltonian:
 Density Functional     Method          .... DFT(GTOs)
  Functional kind                       .... Exchange
  Functional name                       .... Re-regularized SCAN exchange by Furness et al
  Functional family                     .... MGGA
  Functional refs                              
    [ 0] J. W. Furness, A. D. Kaplan, J. Ning, J. P. Perdew, and J. Sun.,  J. Phys. Chem. Lett. 11, 8208-8215 (2020), doi: 10.1021/acs.jpclett.0c02405
    [ 1] J. W. Furness, A. D. Kaplan, J. Ning, J. P. Perdew, and J. Sun.,  J. Phys. Chem. Lett. 11, 9248-9248 (2020), doi: 10.1021/acs.jpclett.0c03077
  Functional external parameters        .... 6
    Parameter  0 _c1        =  6.670000e-01 : c1 parameter        
    Parameter  1 _c2        =  8.000000e-01 : c2 parameter        
    Parameter  2 _d         =  1.240000e+00 : d parameter         
    Parameter  3 _k1        =  6.500000e-02 : k1 parameter        
    Parameter  4 _eta       =  1.000000e-03 : eta parameter       
    Parameter  5 _dp2       =  3.610000e-01 : dp2 parameter       
  Functional kind                       .... Correlation
  Functional name                       .... Re-regularized SCAN correlation by Furness et al
  Functional family                     .... MGGA
  Functional refs                              
    [ 0] J. W. Furness, A. D. Kaplan, J. Ning, J. P. Perdew, and J. Sun.,  J. Phys. Chem. Lett. 11, 8208-8215 (2020), doi: 10.1021/acs.jpclett.0c02405
    [ 1] J. W. Furness, A. D. Kaplan, J. Ning, J. P. Perdew, and J. Sun.,  J. Phys. Chem. Lett. 11, 9248-9248 (2020), doi: 10.1021/acs.jpclett.0c03077
  Functional external parameters        .... 1
    Parameter  0 _eta       =  1.000000e-03 : Regularization parameter
 Gradients option       PostSCFGGA      .... off
 RI-approximation to the Coulomb term is turned on
   Number of AuxJ basis functions       .... 449


General Settings:
 Integral files         IntName         .... sp_gas
 Hartree-Fock type      HFTyp           .... RHF
 Total Charge           Charge          ....    0
 Multiplicity           Mult            ....    1
 Number of Electrons    NEL             ....   66
 Basis Dimension        Dim             ....  190
 Nuclear Repulsion      ENuc            ....    406.9720675680 Eh

Convergence Acceleration:
 AO-DIIS                CNVDIIS         .... on
   Start iteration      DIISMaxIt       ....    12
   Startup error        DIISStart       ....  0.200000
   # of expansion vecs  DIISMaxEq       ....     5
   Bias factor          DIISBfac        ....   1.050
   Max. coefficient     DIISMaxC        ....  10.000
 MO-DIIS                CNVKDIIS        .... off
 Trust-Rad. Augm. Hess. CNVTRAH         .... auto
   Auto Start mean grad. ratio tolernc. ....  1.125000
   Auto Start start iteration           ....     1
   Auto Start num. interpolation iter.  ....    10
   Max. Number of Micro iterations      ....    24
   Max. Number of Macro iterations      .... Maxiter - #DIIS iter
   Number of Davidson start vectors     ....     2
   Converg. threshold    (grad. norm)   ....   3.330e-04
   Grad. Scal. Fac. for Micro threshold ....   0.100
   Minimum threshold for Micro iter.    ....   1.000e-02
   NR start threshold (gradient norm)   ....   1.000e-04
   Initial trust radius                 ....   0.400
   Minimum AH scaling param. (alpha)    ....   1.000
   Maximum AH scaling param. (alpha)    .... 1000.000
   Quad. conv. algorithm                .... NR
   White noise on init. David. guess    .... on
   Maximum white noise                  ....   0.010
   Pseudo random numbers                .... off
   Inactive MOs                         .... canonical
   Orbital update algorithm             .... Taylor
   Preconditioner                       .... Diag
   Full preconditioner red. dimension   ....   250
   COSX micro iterations for RIJONX calc.... off
 SOSCF                  CNVSOSCF        .... on
   Start iteration      SOSCFMaxIt      ....   150
   Startup grad/error   SOSCFStart      ....  0.003300
   Hessian update       SOSCFHessUp     .... L-BFGS
 Level Shifting         CNVShift        .... on
   Level shift para.    LevelShift      ....    0.2500
   Turn off err/grad.   ShiftErr        ....    0.0010
 Zerner damping         CNVZerner       .... off
 Static damping         CNVDamp         .... on
   Fraction old density DampFac         ....    0.7000
   Max. Damping (<1)    DampMax         ....    0.9800
   Min. Damping (>=0)   DampMin         ....    0.0000
   Turn off err/grad.   DampErr         ....    0.1000

SCF Procedure:
 Maximum # iterations   MaxIter         ....   125
 SCF integral mode      SCFMode         .... Direct
   Integral package                     .... SHARK and LIBINT hybrid scheme
 Reset frequency        DirectResetFreq ....    20
 Integral Threshold     Thresh          ....  1.000e-10 Eh
 Primitive CutOff       TCut            ....  1.000e-11 Eh

Convergence Tolerance:
 Convergence Check Mode ConvCheckMode   .... Total+1el-Energy
 Convergence forced     ConvForced      .... 0
 Energy Change          TolE            ....  1.000e-06 Eh
 1-El. energy change                    ....  1.000e-03 Eh
 Orbital Gradient       TolG            ....  3.330e-04
 Orbital Rotation angle TolX            ....  3.330e-04
 DIIS Error             TolErr          ....  1.000e-06

---------------------
INITIAL GUESS: MOREAD
---------------------
Guess MOs are being read from file: sp_gas.ges
Input Geometry matches current geometry (good)
Atom 0: N(Shells)= 9 and 6 - projection required
Input basis set needs projection
NBasis(read)= 126
NBasis(calc)= 190
Basis set overlap was calculated
Using GuessMode=FMatrix for the initial guess
C*T matrix was formed
Effective Fockian was calculated
Effective Fockian was diagonalized
Initial density was built
                      ------------------
                      INITIAL GUESS DONE (   0.0 sec)
                      ------------------
             **** ENERGY FILE WAS UPDATED (sp_gas.en.tmp) ****
Finished Guess after   0.2 sec
Maximum memory used throughout the entire GUESS-calculation: 13.1 MB

-------------------------------------------------------------------------------------------
                                      ORCA LEAN-SCF
                              memory conserving SCF solver
-------------------------------------------------------------------------------------------

----------------------------------------D-I-I-S--------------------------------------------
Iteration    Energy (Eh)           Delta-E    RMSDP     MaxDP     DIISErr   Damp  Time(sec)
-------------------------------------------------------------------------------------------
               ***  Starting incremental Fock matrix formation  ***
    1    -766.8082963804060910     0.00e+00  1.65e-02  5.32e-01  6.21e-01  0.700   2.0
    2    -766.8590448875636412    -5.07e-02  1.23e-02  3.88e-01  4.36e-01  0.700   1.9
    3    -766.8949034832073721    -3.59e-02  8.68e-03  2.72e-01  3.06e-01  0.700   2.3
    4    -766.9200777999105867    -2.52e-02  6.10e-03  1.90e-01  2.14e-01  0.700   2.2
                               ***Turning on AO-DIIS***
    5    -766.9377372357250806    -1.77e-02  4.30e-03  1.32e-01  1.50e-01  0.700   2.3
    6    -766.9501168359163330    -1.24e-02  3.01e-03  9.22e-02  1.05e-01  0.700   2.0
    7    -766.9587962277726092    -8.68e-03  2.11e-03  6.45e-02  7.34e-02  0.700   2.1
    8    -766.9648780706786511    -6.08e-03  4.92e-03  1.50e-01  5.14e-02  0.000   2.0
                              *** Initializing SOSCF ***
---------------------------------------S-O-S-C-F--------------------------------------
Iteration    Energy (Eh)           Delta-E    RMSDP     MaxDP     MaxGrad    Time(sec)
--------------------------------------------------------------------------------------
    9    -766.9790891191937590    -1.42e-02  1.08e-05  2.22e-04  1.29e-04     2.0
               *** Restarting incremental Fock matrix formation ***
   10    -766.9790892715047903    -1.52e-07  8.12e-06  1.40e-04  3.04e-05     2.5
                  *** Gradient check signals convergence ***

               *****************************************************
               *                     SUCCESS                       *
               *           SCF CONVERGED AFTER  10 CYCLES          *
               *****************************************************

             **** ENERGY FILE WAS UPDATED (sp_gas.en.tmp) ****

----------------
TOTAL SCF ENERGY
----------------

Total Energy       :       -766.97908927150479 Eh          -20870.56206 eV

Components:
Nuclear Repulsion  :        406.97206756802899 Eh           11074.27296 eV
Electronic Energy  :      -1173.95115683953372 Eh          -31944.83502 eV
One Electron Energy:      -1858.49601270339485 Eh          -50572.24755 eV
Two Electron Energy:        684.54485586386113 Eh           18627.41253 eV

Virial components:
Potential Energy   :      -1531.71223525126061 Eh          -41680.00889 eV
Kinetic Energy     :        764.73314597975570 Eh           20809.44683 eV
Virial Ratio       :          2.00293689805857

DFT components:
N(Alpha)           :       33.000005161415 electrons
N(Beta)            :       33.000005161415 electrons
N(Total)           :       66.000010322830 electrons
E(X)               :      -68.880392967745 Eh       
E(C)               :       -2.265889982218 Eh       
E(XC)              :      -71.146282949963 Eh       

---------------
SCF CONVERGENCE
---------------

  Last Energy change         ...    1.5231e-07  Tolerance :   1.0000e-06
  Last MAX-Density change    ...    1.3958e-04  Tolerance :   1.0000e-05
  Last RMS-Density change    ...    8.1155e-06  Tolerance :   1.0000e-06
  Last DIIS Error            ...    1.2907e-04  Tolerance :   1.0000e-06
  Last Orbital Gradient      ...    3.0435e-05  Tolerance :   3.3300e-04
  Last Orbital Rotation      ...    1.6186e-04  Tolerance :   3.3300e-04


----------------
ORBITAL ENERGIES
----------------

  NO   OCC          E(Eh)            E(eV) 
   0   2.0000    -101.214845     -2754.1960 
   1   2.0000     -18.999010      -516.9893 
   2   2.0000     -10.114525      -275.2302 
   3   2.0000     -10.097994      -274.7804 
   4   2.0000     -10.049727      -273.4670 
   5   2.0000     -10.049236      -273.4536 
   6   2.0000     -10.047000      -273.3928 
   7   2.0000     -10.041152      -273.2336 
   8   2.0000      -9.370460      -254.9832 
   9   2.0000      -7.116878      -193.6601 
  10   2.0000      -7.106768      -193.3850 
  11   2.0000      -7.106077      -193.3662 
  12   2.0000      -1.045047       -28.4372 
  13   2.0000      -0.857265       -23.3274 
  14   2.0000      -0.805788       -21.9266 
  15   2.0000      -0.726852       -19.7786 
  16   2.0000      -0.705858       -19.2074 
  17   2.0000      -0.613333       -16.6896 
  18   2.0000      -0.575964       -15.6728 
  19   2.0000      -0.531369       -14.4593 
  20   2.0000      -0.476331       -12.9616 
  21   2.0000      -0.457555       -12.4507 
  22   2.0000      -0.424805       -11.5595 
  23   2.0000      -0.407735       -11.0950 
  24   2.0000      -0.404616       -11.0101 
  25   2.0000      -0.375721       -10.2239 
  26   2.0000      -0.348543        -9.4843 
  27   2.0000      -0.334121        -9.0919 
  28   2.0000      -0.327179        -8.9030 
  29   2.0000      -0.309880        -8.4323 
  30   2.0000      -0.279856        -7.6153 
  31   2.0000      -0.238794        -6.4979 
  32   2.0000      -0.213562        -5.8113 
  33   0.0000      -0.045218        -1.2304 
  34   0.0000      -0.028502        -0.7756 
  35   0.0000       0.009469         0.2577 
  36   0.0000       0.049179         1.3382 
  37   0.0000       0.099808         2.7159 
  38   0.0000       0.110937         3.0187 
  39   0.0000       0.114981         3.1288 
  40   0.0000       0.124686         3.3929 
  41   0.0000       0.139811         3.8045 
  42   0.0000       0.155304         4.2260 
  43   0.0000       0.184315         5.0155 
*Only the first 10 virtual orbitals were printed.

                    ********************************
                    * MULLIKEN POPULATION ANALYSIS *
                    ********************************

-----------------------
MULLIKEN ATOMIC CHARGES
-----------------------
   0 C :   -0.128915
   1 C :   -0.167308
   2 C :   -0.180418
   3 C :    0.016000
   4 C :    0.381044
   5 C :   -0.305142
   6 O :   -0.400132
   7 Cl:   -0.136641
   8 H :    0.150012
   9 H :    0.151314
  10 H :    0.163549
  11 H :    0.139821
  12 H :    0.316815
Sum of atomic charges:   -0.0000000

--------------------------------
MULLIKEN REDUCED ORBITAL CHARGES
--------------------------------
  0 C s       :     3.165730  s :     3.165730
      pz      :     0.984542  p :     2.924893
      px      :     1.024064
      py      :     0.916286
      dz2     :     0.003337  d :     0.038291
      dxz     :     0.002392
      dyz     :     0.007807
      dx2y2   :     0.012983
      dxy     :     0.011772

  1 C s       :     3.187241  s :     3.187241
      pz      :     1.016860  p :     2.942612
      px      :     0.936530
      py      :     0.989221
      dz2     :     0.003339  d :     0.037455
      dxz     :     0.005455
      dyz     :     0.003804
      dx2y2   :     0.012087
      dxy     :     0.012771

  2 C s       :     3.184600  s :     3.184600
      pz      :     0.994288  p :     2.958524
      px      :     0.972485
      py      :     0.991751
      dz2     :     0.003420  d :     0.037294
      dxz     :     0.006736
      dyz     :     0.003610
      dx2y2   :     0.010106
      dxy     :     0.013421

  3 C s       :     3.181680  s :     3.181680
      pz      :     1.069988  p :     2.750432
      px      :     0.729080
      py      :     0.951364
      dz2     :     0.003976  d :     0.051888
      dxz     :     0.007925
      dyz     :     0.006902
      dx2y2   :     0.017192
      dxy     :     0.015892

  4 C s       :     3.059714  s :     3.059714
      pz      :     0.959379  p :     2.485485
      px      :     0.744448
      py      :     0.781658
      dz2     :     0.005002  d :     0.073756
      dxz     :     0.011016
      dyz     :     0.013815
      dx2y2   :     0.020809
      dxy     :     0.023115

  5 C s       :     3.215993  s :     3.215993
      pz      :     1.070606  p :     3.053170
      px      :     0.914434
      py      :     1.068130
      dz2     :     0.003473  d :     0.035979
      dxz     :     0.006015
      dyz     :     0.003080
      dx2y2   :     0.013450
      dxy     :     0.009961

  6 O s       :     3.758459  s :     3.758459
      pz      :     1.839534  p :     4.608454
      px      :     1.587992
      py      :     1.180929
      dz2     :     0.006000  d :     0.033219
      dxz     :     0.005492
      dyz     :     0.002636
      dx2y2   :     0.007905
      dxy     :     0.011185

  7 Cls       :     5.945426  s :     5.945426
      pz      :     3.929222  p :    11.138076
      px      :     3.249099
      py      :     3.959755
      dz2     :     0.005597  d :     0.053138
      dxz     :     0.018965
      dyz     :     0.000580
      dx2y2   :     0.017383
      dxy     :     0.010613

  8 H s       :     0.830357  s :     0.830357
      pz      :     0.004228  p :     0.019631
      px      :     0.012189
      py      :     0.003214

  9 H s       :     0.828936  s :     0.828936
      pz      :     0.004425  p :     0.019751
      px      :     0.006050
      py      :     0.009275

 10 H s       :     0.816711  s :     0.816711
      pz      :     0.004107  p :     0.019740
      px      :     0.004955
      py      :     0.010677

 11 H s       :     0.840300  s :     0.840300
      pz      :     0.004625  p :     0.019879
      px      :     0.004981
      py      :     0.010273

 12 H s       :     0.640715  s :     0.640715
      pz      :     0.011964  p :     0.042471
      px      :     0.012393
      py      :     0.018114


------------------------
MULLIKEN OVERLAP CHARGES
------------------------
B(  0-C ,  1-C ) :   0.9606 B(  0-C ,  2-C ) :  -0.0774 B(  0-C ,  3-C ) :  -0.0779 
B(  0-C ,  4-C ) :  -0.0545 B(  0-C ,  5-C ) :   0.5987 B(  0-C ,  8-H ) :   0.7709 
B(  0-C ,  9-H ) :  -0.0576 B(  1-C ,  2-C ) :   0.7704 B(  1-C ,  3-C ) :  -0.1155 
B(  1-C ,  4-C ) :  -0.0864 B(  1-C ,  5-C ) :  -0.0941 B(  1-C ,  9-H ) :   0.7973 
B(  1-C , 10-H ) :  -0.0546 B(  2-C ,  3-C ) :   0.7547 B(  2-C ,  5-C ) :  -0.2299 
B(  2-C ,  7-Cl) :  -0.1279 B(  2-C ,  9-H ) :  -0.0547 B(  2-C , 10-H ) :   0.7991 
B(  3-C ,  4-C ) :   0.9339 B(  3-C ,  5-C ) :  -0.0700 B(  3-C ,  7-Cl) :   0.5705 
B(  4-C ,  5-C ) :   0.6473 B(  4-C ,  6-O ) :   0.5138 B(  4-C ,  7-Cl) :  -0.1987 
B(  4-C , 11-H ) :  -0.0838 B(  4-C , 12-H ) :  -0.1147 B(  5-C ,  6-O ) :  -0.1797 
B(  5-C , 11-H ) :   0.7689 B(  6-O , 12-H ) :   0.6001 


                     *******************************
                     * LOEWDIN POPULATION ANALYSIS *
                     *******************************

----------------------
LOEWDIN ATOMIC CHARGES
----------------------
   0 C :   -0.155767
   1 C :   -0.179477
   2 C :   -0.161242
   3 C :   -0.146058
   4 C :    0.169377
   5 C :   -0.164688
   6 O :   -0.497122
   7 Cl:    0.155003
   8 H :    0.169864
   9 H :    0.170142
  10 H :    0.179498
  11 H :    0.171107
  12 H :    0.289363

-------------------------------
LOEWDIN REDUCED ORBITAL CHARGES
-------------------------------
  0 C s       :     2.900826  s :     2.900826
      pz      :     0.974414  p :     3.171463
      px      :     1.101786
      py      :     1.095263
      dz2     :     0.005634  d :     0.083477
      dxz     :     0.003551
      dyz     :     0.014637
      dx2y2   :     0.031696
      dxy     :     0.027959

  1 C s       :     2.900003  s :     2.900003
      pz      :     1.007325  p :     3.197529
      px      :     1.089749
      py      :     1.100456
      dz2     :     0.005666  d :     0.081944
      dxz     :     0.009839
      dyz     :     0.006374
      dx2y2   :     0.028847
      dxy     :     0.031218

  2 C s       :     2.903201  s :     2.903201
      pz      :     0.982044  p :     3.175677
      px      :     1.103465
      py      :     1.090168
      dz2     :     0.005943  d :     0.082364
      dxz     :     0.012396
      dyz     :     0.006164
      dx2y2   :     0.025337
      dxy     :     0.032524

  3 C s       :     2.886398  s :     2.886398
      pz      :     1.056342  p :     3.149570
      px      :     0.997085
      py      :     1.096142
      dz2     :     0.007705  d :     0.110090
      dxz     :     0.014400
      dyz     :     0.012029
      dx2y2   :     0.038134
      dxy     :     0.037822

  4 C s       :     2.782423  s :     2.782423
      pz      :     0.916427  p :     2.886766
      px      :     1.027309
      py      :     0.943030
      dz2     :     0.011121  d :     0.161435
      dxz     :     0.019936
      dyz     :     0.026828
      dx2y2   :     0.049172
      dxy     :     0.054378

  5 C s       :     2.894405  s :     2.894405
      pz      :     1.041795  p :     3.191435
      px      :     1.045269
      py      :     1.104371
      dz2     :     0.005853  d :     0.078849
      dxz     :     0.010847
      dyz     :     0.004964
      dx2y2   :     0.031254
      dxy     :     0.025931

  6 O s       :     3.484484  s :     3.484484
      pz      :     1.803843  p :     4.734185
      px      :     1.623827
      py      :     1.306515
      dz2     :     0.034308  d :     0.278453
      dxz     :     0.030186
      dyz     :     0.041656
      dx2y2   :     0.076185
      dxy     :     0.096117

  7 Cls       :     5.648014  s :     5.648014
      pz      :     3.902177  p :    11.086340
      px      :     3.289593
      py      :     3.894571
      dz2     :     0.014045  d :     0.110642
      dxz     :     0.033173
      dyz     :     0.000533
      dx2y2   :     0.042859
      dxy     :     0.020033

  8 H s       :     0.785371  s :     0.785371
      pz      :     0.009085  p :     0.044765
      px      :     0.028569
      py      :     0.007111

  9 H s       :     0.784621  s :     0.784621
      pz      :     0.009659  p :     0.045237
      px      :     0.013883
      py      :     0.021696

 10 H s       :     0.775105  s :     0.775105
      pz      :     0.009050  p :     0.045397
      px      :     0.011189
      py      :     0.025158

 11 H s       :     0.783863  s :     0.783863
      pz      :     0.010259  p :     0.045030
      px      :     0.010893
      py      :     0.023878

 12 H s       :     0.591049  s :     0.591049
      pz      :     0.030069  p :     0.119587
      px      :     0.037600
      py      :     0.051918


---------------------------------
LOEWDIN BOND ORDERS (THRESH 0.050000)
---------------------------------
B(  0-C ,  1-C ) :   1.4988 B(  0-C ,  2-C ) :   0.0891 B(  0-C ,  3-C ) :   0.1155 
B(  0-C ,  4-C ) :   0.0938 B(  0-C ,  5-C ) :   1.5067 B(  0-C ,  8-H ) :   0.8721 
B(  0-C ,  9-H ) :   0.0538 B(  0-C , 11-H ) :   0.0537 B(  1-C ,  2-C ) :   1.4958 
B(  1-C ,  3-C ) :   0.0969 B(  1-C ,  4-C ) :   0.1041 B(  1-C ,  5-C ) :   0.0901 
B(  1-C ,  8-H ) :   0.0538 B(  1-C ,  9-H ) :   0.8728 B(  1-C , 10-H ) :   0.0530 
B(  2-C ,  3-C ) :   1.4509 B(  2-C ,  4-C ) :   0.0918 B(  2-C ,  5-C ) :   0.1217 
B(  2-C ,  7-Cl) :   0.1555 B(  2-C ,  9-H ) :   0.0549 B(  2-C , 10-H ) :   0.8664 
B(  3-C ,  4-C ) :   1.2475 B(  3-C ,  5-C ) :   0.0906 B(  3-C ,  6-O ) :   0.2168 
B(  3-C ,  7-Cl) :   1.3917 B(  3-C , 10-H ) :   0.0543 B(  4-C ,  5-C ) :   1.3264 
B(  4-C ,  6-O ) :   1.5034 B(  4-C ,  7-Cl) :   0.1396 B(  4-C , 11-H ) :   0.0556 
B(  4-C , 12-H ) :   0.0504 B(  5-C ,  6-O ) :   0.2217 B(  5-C ,  8-H ) :   0.0557 
B(  5-C , 11-H ) :   0.8636 B(  6-O ,  7-Cl) :   0.0809 B(  6-O , 12-H ) :   0.9394 


------------------------------------------
LOEWDIN REDUCED ORBITAL POPULATIONS PER MO
-------------------------------------------
THRESHOLD FOR PRINTING IS 0.1%%
                      0         1         2         3         4         5   
                 -101.21485 -18.99901 -10.11452 -10.09799 -10.04973 -10.04924
                   2.00000   2.00000   2.00000   2.00000   2.00000   2.00000
                  --------  --------  --------  --------  --------  --------
 0 C  s               0.0       0.0       0.0       0.0       0.0       1.1
 1 C  px              0.0       0.0       0.0       0.0       0.1       0.0
 2 C  s               0.0       0.0       0.0       0.0      99.5       0.0
 3 C  s               0.0       0.0       0.0      99.5       0.0       0.0
 3 C  py              0.0       0.0       0.1       0.0       0.1       0.0
 4 C  s               0.0       0.0      99.2       0.0       0.0       0.0
 4 C  px              0.0       0.0       0.0       0.0       0.0       0.1
 4 C  py              0.0       0.0       0.0       0.1       0.0       0.0
 5 C  s               0.0       0.0       0.0       0.0       0.0      98.5
 5 C  px              0.0       0.0       0.1       0.0       0.0       0.0
 6 O  s               0.0      99.9       0.0       0.0       0.0       0.0
 6 O  dxy             0.0       0.0       0.2       0.0       0.0       0.0
 7 Cl s             100.0       0.0       0.0       0.0       0.0       0.0

                      6         7         8         9        10        11   
                 -10.04700 -10.04115  -9.37046  -7.11688  -7.10677  -7.10608
                   2.00000   2.00000   2.00000   2.00000   2.00000   2.00000
                  --------  --------  --------  --------  --------  --------
 0 C  s              98.3       0.2       0.0       0.0       0.0       0.0
 0 C  py              0.0       0.1       0.0       0.0       0.0       0.0
 1 C  s               0.2      99.4       0.0       0.0       0.0       0.0
 1 C  py              0.1       0.0       0.0       0.0       0.0       0.0
 2 C  px              0.0       0.1       0.0       0.0       0.0       0.0
 3 C  px              0.0       0.0       0.2       0.0       0.0       0.0
 5 C  s               1.1       0.0       0.0       0.0       0.0       0.0
 7 Cl s               0.0       0.0      99.8       0.0       0.0       0.0
 7 Cl pz              0.0       0.0       0.0       0.0     100.0       0.0
 7 Cl px              0.0       0.0       0.0      99.1       0.0       0.9
 7 Cl py              0.0       0.0       0.0       0.9       0.0      99.1

                     12        13        14        15        16        17   
                  -1.04505  -0.85726  -0.80579  -0.72685  -0.70586  -0.61333
                   2.00000   2.00000   2.00000   2.00000   2.00000   2.00000
                  --------  --------  --------  --------  --------  --------
 0 C  s               0.1       4.7      12.1       0.3      15.4       1.4
 0 C  px              0.1       1.5       1.4       0.1       0.2       0.5
 0 C  py              0.0       0.0       0.0       9.4       0.1       8.1
 0 C  dz2             0.0       0.1       0.1       0.0       0.1       0.0
 0 C  dxy             0.0       0.0       0.0       0.3       0.0       0.1
 1 C  s               0.0       5.9       8.2      12.4       4.2       4.5
 1 C  px              0.0       1.2       0.0       2.7       4.3       5.0
 1 C  py              0.0       0.8       1.8       1.1       1.7       0.3
 1 C  dx2y2           0.0       0.0       0.0       0.1       0.1       0.1
 2 C  s               0.1      10.9       1.5      16.6       3.0       5.5
 2 C  px              0.0       0.1       4.2       1.5       2.3       3.7
 2 C  py              0.1       2.9       0.0       0.4       1.1       0.2
 2 C  dz2             0.0       0.1       0.0       0.1       0.0       0.0
 2 C  dx2y2           0.0       0.0       0.0       0.1       0.1       0.0
 3 C  s               1.0      22.0       1.5       0.1       7.7       0.0
 3 C  px              0.0       0.4      14.1       0.6       7.7       0.3
 3 C  py              1.6       0.2       0.0       8.6       0.4      12.2
 3 C  dz2             0.0       0.3       0.0       0.0       0.0       0.0
 3 C  dx2y2           0.0       0.0       0.2       0.0       0.4       0.0
 3 C  dxy             0.0       0.0       0.0       0.3       0.0       0.1
 4 C  s              10.5       5.8       1.2       7.6       6.1       2.3
 4 C  px              2.9       0.2       5.4       4.0       0.7      11.0
 4 C  py              6.4       6.5       0.0       0.2       3.3       0.6
 4 C  dz2             0.4       0.0       0.0       0.0       0.0       0.0
 4 C  dx2y2           0.1       0.0       0.0       0.2       0.1       0.0
 4 C  dxy             0.6       0.1       0.0       0.1       0.1       0.0
 5 C  s               0.9       4.7       9.3      15.0       1.6       7.1
 5 C  px              1.6       0.3       0.1       0.8       6.4       0.1
 5 C  py              0.1       1.4       1.6       0.2       0.9       2.0
 5 C  dx2y2           0.0       0.0       0.0       0.1       0.1       0.0
 5 C  dxy             0.0       0.0       0.0       0.0       0.1       0.0
 6 O  s              58.2       1.9       0.1       2.0       0.8       0.0
 6 O  px              2.8       0.1       0.2       0.6       0.1       0.4
 6 O  py              0.2       1.3       0.0       2.9       3.8      17.9
 6 O  dz2             0.2       0.3       0.0       0.2       0.1       0.0
 6 O  dx2y2           0.0       0.1       0.1       0.0       0.2       0.5
 6 O  dxy             0.1       0.1       0.3       0.7       0.7       0.3
 7 Cl s               0.1      20.1      31.7       0.7      17.3       0.2
 7 Cl px              0.1       2.0       0.6       0.0       1.4       0.0
 7 Cl py              0.0       0.0       0.0       0.1       0.0       0.7
 7 Cl dz2             0.0       0.2       0.0       0.0       0.1       0.0
 7 Cl dx2y2           0.0       0.4       0.1       0.0       0.1       0.0
 7 Cl dxy             0.0       0.0       0.0       0.0       0.0       0.2
 8 H  s               0.0       0.4       1.3       0.1       3.2       0.6
 8 H  px              0.0       0.0       0.1       0.0       0.3       0.0
 9 H  s               0.0       0.5       0.8       2.1       0.9       1.9
 9 H  py              0.0       0.0       0.0       0.1       0.1       0.1
10 H  s               0.0       1.0       0.1       2.9       0.4       2.6
10 H  py              0.0       0.1       0.0       0.2       0.0       0.2
11 H  s               0.1       0.4       1.0       2.7       0.4       3.8
11 H  py              0.0       0.0       0.1       0.2       0.0       0.2
12 H  s               9.3       0.6       0.0       1.0       1.0       4.6
12 H  px              0.5       0.1       0.0       0.1       0.1       0.2
12 H  py              1.7       0.1       0.0       0.1       0.1       0.2

                     18        19        20        21        22        23   
                  -0.57596  -0.53137  -0.47633  -0.45756  -0.42481  -0.40773
                   2.00000   2.00000   2.00000   2.00000   2.00000   2.00000
                  --------  --------  --------  --------  --------  --------
 0 C  s               6.9       1.5       0.3       1.0       0.9       0.3
 0 C  px              1.9       4.5       8.6       0.5       9.1      14.4
 0 C  py              1.0       4.6       3.3       8.8       1.6       0.1
 0 C  dx2y2           0.0       0.0       0.0       0.1       0.3       0.0
 0 C  dxy             0.0       0.0       0.0       0.1       0.1       0.1
 1 C  s               5.0       1.0       1.6       0.5       1.7       0.0
 1 C  px              1.6       0.2      14.2       3.1       0.3       0.7
 1 C  py              7.1       0.7       6.4       9.9       3.7       0.3
 1 C  dx2y2           0.1       0.0       0.0       0.0       0.0       0.3
 2 C  s               0.7       3.8       0.9       0.1       0.9       0.3
 2 C  px              7.8       3.1       2.7       8.5       1.3       1.1
 2 C  py              5.5       5.3       0.4       2.0      16.2      11.1
 2 C  dx2y2           0.2       0.0       0.0       0.1       0.3       0.0
 2 C  dxy             0.1       0.0       0.2       0.0       0.1       0.1
 3 C  s               7.2       0.1       3.2       0.3       0.6       0.2
 3 C  px              0.2       1.5       3.4       0.6       2.0      13.8
 3 C  py              0.2       3.2       0.0      12.0       4.7       0.0
 3 C  dx2y2           0.0       0.1       0.0       0.0       0.2       0.1
 3 C  dxy             0.0       0.1       0.1       0.0       0.3       0.1
 4 C  s               2.1       0.2       0.3       0.6       2.5       0.0
 4 C  px              3.7       5.8       0.7       3.4       0.8       1.1
 4 C  py              5.8       7.0       0.1       8.6       3.7       0.5
 4 C  dx2y2           0.2       0.0       0.0       0.0       0.0       0.4
 4 C  dxy             0.0       0.3       0.7       0.2       0.0       0.0
 5 C  s               1.2       0.7       0.2       1.6       0.6       0.6
 5 C  px              6.9       9.3       0.8       9.7       2.6       1.6
 5 C  py              5.1       1.5      11.0       0.5       6.6      12.3
 5 C  dx2y2           0.1       0.0       0.1       0.1       0.4       0.0
 5 C  dxy             0.1       0.1       0.1       0.1       0.0       0.2
 6 O  s               1.2       0.1       1.3       0.9       0.1       0.0
 6 O  px              2.4       0.1       3.4      10.7       0.0       0.1
 6 O  py              4.6      24.2       3.9       2.4       2.4       0.0
 6 O  dz2             0.0       0.1       0.2       0.0       0.0       0.0
 6 O  dx2y2           0.6       0.1       0.0       0.8       0.2       0.0
 6 O  dxy             0.4       0.2       0.0       0.3       0.2       0.0
 7 Cl s               4.9       0.8       3.1       0.3       0.9       2.3
 7 Cl px              4.0       0.9      11.7       1.0       8.0      21.0
 7 Cl py              0.0       0.0       0.0       3.2       0.0       0.0
 7 Cl dz2             0.1       0.0       0.1       0.0       0.0       0.1
 7 Cl dx2y2           0.4       0.0       0.5       0.0       0.2       0.2
 7 Cl dxy             0.0       0.0       0.0       0.4       0.0       0.0
 8 H  s               3.9       3.1       1.9       0.7       7.2       6.0
 8 H  px              0.3       0.2       0.1       0.0       0.2       0.1
 9 H  s               3.2       0.1       9.3       2.0       0.2       0.0
 9 H  px              0.2       0.0       0.1       0.2       0.0       0.0
 9 H  py              0.1       0.0       0.3       0.0       0.0       0.0
10 H  s               0.6       5.8       0.0       0.0      11.0       4.4
10 H  px              0.1       0.0       0.0       0.1       0.1       0.0
10 H  py              0.0       0.3       0.0       0.0       0.2       0.1
11 H  s               1.0       2.4       3.1       3.8       6.7       5.6
11 H  py              0.0       0.2       0.0       0.2       0.1       0.1
12 H  s               1.0       5.9       1.5       0.2       0.6       0.0
12 H  px              0.2       0.2       0.0       0.2       0.0       0.0

                     24        25        26        27        28        29   
                  -0.40462  -0.37572  -0.34854  -0.33412  -0.32718  -0.30988
                   2.00000   2.00000   2.00000   2.00000   2.00000   2.00000
                  --------  --------  --------  --------  --------  --------
 0 C  s               0.0       0.4       0.1       0.0       0.1       0.0
 0 C  pz              3.3       0.0       0.0       4.4       0.0      20.8
 0 C  px              0.0       1.9       0.2       0.0      10.1       0.0
 0 C  py              0.0       0.7      16.0       0.0       0.5       0.0
 0 C  dx2y2           0.0       0.2       0.0       0.0       0.8       0.0
 0 C  dxy             0.0       0.1       0.4       0.0       0.0       0.0
 1 C  s               0.0       0.1       0.1       0.0       0.0       0.0
 1 C  pz              2.7       0.0       0.0       9.6       0.0      14.2
 1 C  px              0.0      13.6       0.5       0.0       6.1       0.0
 1 C  py              0.0       1.3      18.0       0.0       1.4       0.0
 1 C  dyz             0.0       0.0       0.0       0.0       0.0       0.1
 1 C  dx2y2           0.0       0.2       0.0       0.0       0.4       0.0
 1 C  dxy             0.0       0.2       0.9       0.0       0.0       0.0
 2 C  s               0.0       0.2       0.4       0.0       0.2       0.0
 2 C  pz              5.1       0.0       0.0      14.0       0.0       1.7
 2 C  px              0.0      10.7       0.2       0.0       5.4       0.0
 2 C  py              0.0       0.4       6.0       0.0       2.0       0.0
 2 C  dxz             0.0       0.0       0.0       0.0       0.0       0.2
 2 C  dx2y2           0.0       0.2       0.0       0.0       0.3       0.0
 2 C  dxy             0.0       0.1       0.7       0.0       0.1       0.0
 3 C  s               0.0       0.0       0.3       0.0       0.3       0.0
 3 C  pz             16.0       0.0       0.0      11.4       0.0       3.8
 3 C  px              0.0       2.9       0.4       0.0       1.6       0.0
 3 C  py              0.0       3.1       3.5       0.0       2.7       0.0
 3 C  dxz             0.0       0.0       0.0       0.0       0.0       0.3
 3 C  dyz             0.1       0.0       0.0       0.2       0.0       0.0
 3 C  dx2y2           0.0       0.2       0.0       0.0       0.6       0.0
 4 C  s               0.0       0.2       0.1       0.0       0.0       0.0
 4 C  pz             27.5       0.0       0.0       2.3       0.0       0.1
 4 C  px              0.0       1.1       0.2       0.0       9.6       0.0
 4 C  py              0.0       0.7       1.2       0.0       1.1       0.0
 4 C  dxz             0.0       0.0       0.0       0.1       0.0       0.2
 4 C  dyz             0.0       0.0       0.0       0.6       0.0       0.0
 4 C  dx2y2           0.0       0.4       0.1       0.0       0.8       0.0
 4 C  dxy             0.0       0.2       0.4       0.0       0.0       0.0
 5 C  s               0.0       1.2       0.1       0.0       0.1       0.0
 5 C  pz              8.7       0.0       0.0       0.2       0.0      11.7
 5 C  px              0.0       0.3       1.5       0.0      10.0       0.0
 5 C  py              0.0       0.0      11.2       0.0       0.5       0.0
 5 C  dxz             0.1       0.0       0.0       0.0       0.0       0.0
 5 C  dyz             0.0       0.0       0.0       0.0       0.0       0.1
 5 C  dx2y2           0.0       0.0       0.1       0.0       0.6       0.0
 5 C  dxy             0.0       0.1       0.4       0.0       0.0       0.0
 6 O  s               0.0       5.2       0.3       0.0       1.9       0.0
 6 O  pz             29.0       0.0       0.0      38.1       0.0       1.5
 6 O  px              0.0      34.4       8.7       0.0      16.3       0.0
 6 O  py              0.0       0.8       0.6       0.0       0.1       0.0
 6 O  dz2             0.0       0.2       0.1       0.0       0.1       0.0
 6 O  dxz             0.5       0.0       0.0       0.2       0.0       0.1
 6 O  dyz             0.7       0.0       0.0       0.0       0.0       0.0
 6 O  dx2y2           0.0       0.3       0.0       0.0       0.7       0.0
 6 O  dxy             0.0       0.3       0.0       0.0       0.4       0.0
 7 Cl s               0.0       0.2       0.0       0.0       0.1       0.0
 7 Cl pz              5.1       0.0       0.0      17.6       0.0      44.4
 7 Cl px              0.0       4.9       0.0       0.0       8.0       0.0
 7 Cl py              0.0       0.9       4.4       0.0       0.3       0.0
 7 Cl dxz             0.3       0.0       0.0       0.3       0.0       0.2
 7 Cl dxy             0.0       0.1       0.1       0.0       0.0       0.0
 8 H  s               0.0       2.4       0.1       0.0       8.3       0.0
 8 H  pz              0.0       0.0       0.0       0.0       0.0       0.2
 8 H  py              0.0       0.0       0.2       0.0       0.0       0.0
 9 H  s               0.0       6.1      11.1       0.0       0.3       0.0
 9 H  pz              0.0       0.0       0.0       0.1       0.0       0.1
 9 H  px              0.0       0.0       0.1       0.0       0.0       0.0
 9 H  py              0.0       0.2       0.0       0.0       0.0       0.0
10 H  s               0.0       0.2       5.8       0.0       3.7       0.0
10 H  pz              0.0       0.0       0.0       0.1       0.0       0.0
11 H  s               0.0       0.3       4.9       0.0       2.6       0.0
11 H  px              0.0       0.0       0.1       0.0       0.0       0.0
12 H  s               0.0       2.3       0.1       0.0       1.4       0.0
12 H  pz              0.4       0.0       0.0       0.6       0.0       0.0
12 H  px              0.0       0.2       0.1       0.0       0.1       0.0
12 H  py              0.0       0.2       0.1       0.0       0.1       0.0

                     30        31        32        33        34        35   
                  -0.27986  -0.23879  -0.21356  -0.04522  -0.02850   0.00947
                   2.00000   2.00000   2.00000   0.00000   0.00000   0.00000
                  --------  --------  --------  --------  --------  --------
 0 C  s               0.0       0.0       0.0       0.0       0.0       0.7
 0 C  pz              0.0      10.9       9.3      19.4      12.1       0.0
 0 C  px              0.1       0.0       0.0       0.0       0.0       0.1
 0 C  py              0.2       0.0       0.0       0.0       0.0       0.0
 0 C  dxz             0.0       0.0       0.0       0.2       0.1       0.0
 0 C  dyz             0.0       0.4       0.3       0.4       0.9       0.0
 1 C  s               0.1       0.0       0.0       0.0       0.0       0.7
 1 C  pz              0.0       5.3      18.6       0.5      29.6       0.0
 1 C  px              0.7       0.0       0.0       0.0       0.0       0.5
 1 C  py              0.2       0.0       0.0       0.0       0.0       0.3
 1 C  dxz             0.0       0.4       0.0       1.0       0.0       0.0
 1 C  dyz             0.0       0.1       0.0       0.4       0.2       0.0
 1 C  dxy             0.1       0.0       0.0       0.0       0.0       0.3
 2 C  s               0.4       0.0       0.0       0.0       0.0       0.0
 2 C  pz              0.0      28.3       0.0      25.6       5.5       0.0
 2 C  px              2.2       0.0       0.0       0.0       0.0       0.1
 2 C  py              0.7       0.0       0.0       0.0       0.0       1.5
 2 C  dxz             0.0       0.0       0.4       0.1       1.1       0.0
 2 C  dyz             0.0       0.0       0.1       0.4       0.1       0.0
 2 C  dx2y2           0.0       0.0       0.0       0.0       0.0       1.2
 2 C  dxy             0.0       0.0       0.0       0.0       0.0       0.5
 3 C  s               0.0       0.0       0.0       0.0       0.0       6.5
 3 C  pz              0.0       5.7      16.0      17.7       7.0       0.0
 3 C  px              0.1       0.0       0.0       0.0       0.0      19.8
 3 C  py              2.2       0.0       0.0       0.0       0.0       0.5
 3 C  dz2             0.0       0.0       0.0       0.0       0.0       0.7
 3 C  dxz             0.0       0.2       0.2       0.1       0.0       0.0
 3 C  dyz             0.0       0.2       0.1       0.5       1.1       0.0
 3 C  dx2y2           0.0       0.0       0.0       0.0       0.0       1.3
 3 C  dxy             0.9       0.0       0.0       0.0       0.0       0.1
 4 C  s               0.3       0.0       0.0       0.0       0.0       0.5
 4 C  pz              0.0       1.1      14.8       0.6      25.5       0.0
 4 C  px              0.6       0.0       0.0       0.0       0.0       1.1
 4 C  py              1.3       0.0       0.0       0.0       0.0       2.5
 4 C  dxz             0.0       0.5       0.1       0.9       0.0       0.0
 4 C  dyz             0.0       0.0       0.7       0.5       0.0       0.0
 4 C  dx2y2           0.0       0.0       0.0       0.0       0.0       0.8
 4 C  dxy             0.0       0.0       0.0       0.0       0.0       1.5
 5 C  s               0.1       0.0       0.0       0.0       0.0       0.4
 5 C  pz              0.0      27.1       4.4      24.0       2.8       0.0
 5 C  px              0.0       0.0       0.0       0.0       0.0       1.0
 5 C  py              0.4       0.0       0.0       0.0       0.0       0.2
 5 C  dxz             0.0       0.0       0.3       0.0       1.3       0.0
 5 C  dyz             0.0       0.0       0.0       0.4       0.1       0.0
 5 C  dxy             0.1       0.0       0.0       0.0       0.0       0.7
 6 O  s               0.2       0.0       0.0       0.0       0.0       1.2
 6 O  pz              0.0       3.7      17.8       0.1       5.3       0.0
 6 O  px              0.9       0.0       0.0       0.0       0.0       1.3
 6 O  py              0.0       0.0       0.0       0.0       0.0       0.5
 6 O  dxz             0.0       0.1       0.6       0.5       1.1       0.0
 6 O  dyz             0.0       0.1       1.2       0.7       2.3       0.0
 6 O  dxy             0.7       0.0       0.0       0.0       0.0       0.1
 7 Cl s               0.0       0.0       0.0       0.0       0.0       5.1
 7 Cl pz              0.0      14.5      13.5       1.9       0.9       0.0
 7 Cl px              1.0       0.0       0.0       0.0       0.0      25.6
 7 Cl py             85.0       0.0       0.0       0.0       0.0       0.4
 7 Cl dz2             0.0       0.0       0.0       0.0       0.0       3.3
 7 Cl dxz             0.0       0.2       0.6       1.9       1.1       0.0
 7 Cl dyz             0.0       0.0       0.0       0.2       0.1       0.0
 7 Cl dx2y2           0.0       0.0       0.0       0.0       0.0      11.2
 7 Cl dxy             0.1       0.0       0.0       0.0       0.0       0.4
 8 H  s               0.1       0.0       0.0       0.0       0.0       0.2
 8 H  pz              0.0       0.1       0.1       0.6       0.4       0.0
 9 H  s               0.6       0.0       0.0       0.0       0.0       0.8
 9 H  pz              0.0       0.1       0.2       0.0       0.9       0.0
 9 H  px              0.0       0.0       0.0       0.0       0.0       0.1
10 H  s               0.0       0.0       0.0       0.0       0.0       2.3
10 H  pz              0.0       0.3       0.0       0.8       0.2       0.0
10 H  py              0.0       0.0       0.0       0.0       0.0       0.2
11 H  s               0.4       0.0       0.0       0.0       0.0       1.6
11 H  pz              0.0       0.3       0.1       0.7       0.1       0.0
11 H  px              0.0       0.0       0.0       0.0       0.0       0.2
12 H  s               0.0       0.0       0.0       0.0       0.0       0.9
12 H  pz              0.0       0.1       0.4       0.0       0.2       0.0
12 H  py              0.0       0.0       0.0       0.0       0.0       0.3

                     36        37        38        39        40        41   
                   0.04918   0.09981   0.11094   0.11498   0.12469   0.13981
                   0.00000   0.00000   0.00000   0.00000   0.00000   0.00000
                  --------  --------  --------  --------  --------  --------
 0 C  s               1.3       6.5       4.1       0.0       6.0       5.7
 0 C  pz              0.0       0.0       0.0      14.2       0.0       0.0
 0 C  px              0.3      14.1       0.1       0.0       1.0      14.9
 0 C  py              0.2       0.5       0.7       0.0       4.4       3.2
 0 C  dz2             0.1       0.1       0.1       0.0       0.0       0.2
 0 C  dxz             0.0       0.0       0.0       0.4       0.0       0.0
 0 C  dx2y2           0.2       2.0       0.0       0.0       0.3       0.0
 0 C  dxy             0.0       0.0       0.1       0.0       0.1       0.3
 1 C  s               0.5       2.8      11.8       0.0       3.8       1.0
 1 C  pz              0.0       0.0       0.0      14.1       0.0       0.0
 1 C  px              0.1       2.7       0.7       0.0       3.3      13.6
 1 C  py              0.0       2.0       4.0       0.0      12.3       0.9
 1 C  dz2             0.0       0.0       0.1       0.0       0.8       0.0
 1 C  dxz             0.0       0.0       0.0       0.1       0.0       0.0
 1 C  dyz             0.0       0.0       0.0       0.3       0.0       0.0
 1 C  dx2y2           0.0       0.5       0.0       0.0       0.0       0.6
 1 C  dxy             0.1       0.4       0.5       0.0       0.1       0.1
 2 C  s               0.2       1.3      16.8       0.0       0.5       8.1
 2 C  pz              0.0       0.0       0.0      13.4       0.0       0.0
 2 C  px              0.1       0.3       2.6       0.0       0.9       1.1
 2 C  py              0.3       0.2       6.5       0.0       8.2      12.5
 2 C  dz2             0.0       0.1       0.1       0.0       0.1       0.5
 2 C  dyz             0.0       0.0       0.0       0.5       0.0       0.0
 2 C  dx2y2           0.0       0.0       0.1       0.0       0.5       0.0
 2 C  dxy             0.0       0.0       0.3       0.0       0.0       0.3
 3 C  s               2.4       1.3      11.1       0.0       5.2       2.2
 3 C  pz              0.0       0.0       0.0      12.9       0.0       0.0
 3 C  px              0.4       4.1       0.2       0.0       0.4       0.2
 3 C  py              0.6       0.2       0.7       0.0       0.4       0.5
 3 C  dz2             0.0       0.0       0.8       0.0       0.1       0.4
 3 C  dxz             0.0       0.0       0.0       0.5       0.0       0.0
 3 C  dx2y2           0.0       0.1       0.1       0.0       0.2       0.4
 3 C  dxy             0.0       0.1       0.2       0.0       0.3       0.3
 4 C  s               3.4       1.0       4.5       0.0       7.9       0.0
 4 C  pz              0.0       0.0       0.0      16.6       0.0       0.0
 4 C  px              1.1       1.7       0.3       0.0       0.3       1.6
 4 C  py              5.0       3.5       2.5       0.0       0.4       0.5
 4 C  dz2             0.4       0.3       0.3       0.0       1.2       0.0
 4 C  dx2y2           0.3       0.0       0.0       0.0       0.1       0.3
 4 C  dxy             0.0       0.7       0.4       0.0       0.2       0.2
 5 C  s               4.6       2.6       2.2       0.0       9.7       4.1
 5 C  pz              0.0       0.0       0.0      14.5       0.0       0.0
 5 C  px              1.8       6.9       2.3       0.0       5.0       2.0
 5 C  py              9.5       6.7       7.6       0.0       1.6       4.1
 5 C  dz2             0.0       0.1       0.4       0.0       0.1       0.6
 5 C  dxz             0.0       0.0       0.0       0.2       0.0       0.0
 5 C  dyz             0.0       0.0       0.0       0.5       0.0       0.0
 5 C  dx2y2           0.2       0.8       0.0       0.0       0.4       0.0
 5 C  dxy             0.1       1.0       0.2       0.0       0.3       0.0
 6 O  s               7.1       2.0       0.3       0.0       0.0       0.6
 6 O  pz              0.0       0.0       0.0       1.3       0.0       0.0
 6 O  px              3.5       0.5       0.2       0.0       0.8       0.4
 6 O  py              6.5       0.7       1.0       0.0       1.5       0.2
 6 O  dz2             0.3       0.2       1.5       0.0       3.4       0.1
 6 O  dxz             0.0       0.0       0.0       0.3       0.0       0.0
 6 O  dyz             0.0       0.0       0.0       1.7       0.0       0.0
 6 O  dx2y2           0.6       0.0       0.3       0.0       0.0       0.8
 6 O  dxy             4.9       0.5       0.2       0.0       1.1       0.0
 7 Cl s               0.0       0.1       1.5       0.0       0.5       0.3
 7 Cl pz              0.0       0.0       0.0       0.6       0.0       0.0
 7 Cl px              0.8       2.1       0.2       0.0       0.1       0.3
 7 Cl py              0.2       0.1       0.3       0.0       0.1       0.4
 7 Cl dz2             0.1       1.2       0.6       0.0       0.9       0.0
 7 Cl dxz             0.0       0.0       0.0       4.0       0.0       0.0
 7 Cl dyz             0.0       0.0       0.0       0.1       0.0       0.0
 7 Cl dx2y2           1.7       3.7       0.4       0.0       0.7       0.6
 7 Cl dxy             0.0       0.0       0.3       0.0       1.6       0.7
 8 H  s               0.1       6.8       0.2       0.0       0.7       2.1
 8 H  pz              0.0       0.0       0.0       0.9       0.0       0.0
 8 H  px              0.0       3.1       0.1       0.0       0.1       1.7
 8 H  py              0.0       0.0       0.0       0.0       0.3       0.3
 9 H  s               0.5       2.2       1.4       0.0       3.8       0.5
 9 H  pz              0.0       0.0       0.0       0.9       0.0       0.0
 9 H  px              0.0       0.2       0.3       0.0       0.4       1.4
 9 H  py              0.1       0.9       0.8       0.0       1.5       0.0
10 H  s               0.0       0.6       2.5       0.0       1.4       2.8
10 H  pz              0.0       0.0       0.0       0.9       0.0       0.0
10 H  px              0.0       0.0       0.4       0.0       0.0       0.1
10 H  py              0.0       0.2       1.5       0.0       0.7       1.9
11 H  s               1.5       7.1       2.3       0.0       0.6       2.9
11 H  pz              0.0       0.0       0.0       1.0       0.0       0.0
11 H  px              0.0       0.4       0.2       0.0       1.1       0.2
11 H  py              1.2       2.2       0.5       0.0       0.1       1.1
12 H  s              29.6       0.3       0.6       0.0       2.0       0.3
12 H  pz              0.0       0.0       0.0       0.1       0.0       0.0
12 H  px              2.2       0.0       0.1       0.0       0.2       0.0
12 H  py              5.5       0.2       0.1       0.0       0.2       0.1

                     42        43        44        45        46        47   
                   0.15530   0.18432   0.19187   0.20974   0.21309   0.22831
                   0.00000   0.00000   0.00000   0.00000   0.00000   0.00000
                  --------  --------  --------  --------  --------  --------
 0 C  s               5.9       0.8      10.3       0.7       0.0       1.0
 0 C  pz              0.0       0.0       0.0       0.0      17.3       0.0
 0 C  px              8.2       0.3       1.0       1.9       0.0       5.6
 0 C  py              2.0      10.8       0.2       2.0       0.0       1.9
 0 C  dz2             1.4       0.1       0.6       0.2       0.0       0.3
 0 C  dxz             0.0       0.0       0.0       0.0       0.1       0.0
 0 C  dx2y2           0.0       0.1       0.5       0.2       0.0       0.0
 0 C  dxy             0.4       1.9       0.3       0.5       0.0       0.1
 1 C  s              11.2       0.4       5.8      10.3       0.0       0.3
 1 C  pz              0.0       0.0       0.0       0.0      15.1       0.0
 1 C  px              1.0       0.7       1.9       0.9       0.0       7.7
 1 C  py              4.6       4.6       6.2       2.9       0.0       8.9
 1 C  dz2             0.1       0.0       1.4       1.0       0.0       0.1
 1 C  dx2y2           0.0       0.3       0.2       0.0       0.0       1.4
 1 C  dxy             1.1       0.4       0.4       0.0       0.0       0.8
 2 C  s               1.4       5.8       1.5       4.9       0.0       1.9
 2 C  pz              0.0       0.0       0.0       0.0      13.3       0.0
 2 C  px             11.3       2.9       2.7       3.1       0.0       8.0
 2 C  py              6.5       2.0       4.7       0.5       0.0       3.5
 2 C  dz2             0.6       0.7       0.0       0.9       0.0       0.0
 2 C  dx2y2           0.4       0.0       0.1       1.2       0.0       0.0
 2 C  dxy             0.8       0.2       0.5       0.2       0.0       1.5
 3 C  s               0.3       4.4       3.5       3.8       0.0       2.0
 3 C  pz              0.0       0.0       0.0       0.0      10.7       0.0
 3 C  px              2.1       3.9       5.7       0.8       0.0       0.7
 3 C  py              0.5       3.1       0.3       6.0       0.0       2.1
 3 C  dz2             0.2       0.4       0.0       0.6       0.0       0.2
 3 C  dx2y2           0.1       0.0       0.2       0.9       0.0       0.1
 3 C  dxy             0.0       0.1       0.0       0.0       0.0       1.1
 4 C  s               1.8       3.9       2.9      10.9       0.0       1.3
[...]
 5 C  px              0.4       1.1       0.2       1.2       3.0       0.1
 5 C  py              1.6       1.4       1.0       2.2       0.6       0.5
 5 C  dz2             3.6       0.0       3.6       1.0       0.1       0.1
 5 C  dx2y2           0.5       0.1       1.0       5.6       5.4       2.0
 5 C  dxy             2.1       0.1       3.4       5.1       5.3       2.6
 6 O  s               1.3       0.8       0.4       0.2       0.0       5.9
 6 O  px              0.1       8.8       0.0       0.8       2.3       2.8
 6 O  py              0.4       1.3       1.9       0.1       0.2       4.1
 6 O  dz2             0.1       0.9       0.1       0.2       0.1       4.0
 6 O  dx2y2           0.5      32.7       0.0       0.9       8.4       0.5
 6 O  dxy             0.1       0.0       0.0       0.3       0.0       2.8
 7 Cl px              0.4       0.2       0.0       0.3       0.0       0.0
 8 H  s               1.3       0.1       1.2       1.7       0.0       2.9
 8 H  px              4.4       0.3       5.9       5.1       0.1       6.1
 8 H  py              0.0       0.0       0.0       0.4       0.1       0.0
 9 H  s               1.8       0.0       1.2       1.0       0.0       3.5
 9 H  px              2.5       0.1       2.3       0.4       0.1       2.4
 9 H  py              4.2       0.0       4.0       2.9       0.1       4.9
10 H  s               2.8       0.5       0.2       4.9       0.1       2.1
10 H  px              3.2       0.2       0.1       3.2       0.0       0.6
10 H  py              9.4       2.0       0.0      12.3       0.3       3.9
11 H  s               3.8       0.2       0.2       4.5       0.0       0.9
11 H  px              2.4       2.0       0.0       2.2       0.1       0.4
11 H  py             14.9       0.0       0.2      11.7       0.4       1.5
12 H  px              0.0       5.5       0.1       0.3       1.1       0.0
12 H  py              0.0       0.8       0.0       0.0       0.6       0.1

                    180       181       182       183       184       185   
                   4.17173   4.58057  21.35358  21.86396  21.94662  22.15425
                   0.00000   0.00000   0.00000   0.00000   0.00000   0.00000
                  --------  --------  --------  --------  --------  --------
 0 C  s               0.1       0.0      14.8      27.4       0.1      35.4
 0 C  px              0.7       0.0       0.0       0.0       0.0       0.0
 0 C  dx2y2           3.3       0.2       0.0       0.0       0.0       0.0
 0 C  dxy             0.1       0.0       0.0       0.0       0.0       0.0
 1 C  s               0.1       0.0      14.3      14.0      19.3       0.7
 1 C  px              0.2       0.0       0.0       0.0       0.0       0.0
 1 C  py              0.4       0.0       0.0       0.0       0.0       0.0
 1 C  dx2y2           0.3       0.0       0.0       0.0       0.0       0.0
 1 C  dxy             2.0       0.1       0.0       0.0       0.0       0.0
 2 C  s               0.1       0.0      17.0       1.6      24.6      27.9
 2 C  py              0.3       0.0       0.0       0.0       0.0       0.0
 2 C  dx2y2           0.8       0.0       0.0       0.0       0.0       0.0
 2 C  dxy             1.1       0.1       0.0       0.0       0.0       0.0
 3 C  s               0.2       0.2      25.9      43.1       0.4      20.0
 3 C  px              0.2       0.1       0.0       0.0       0.0       0.0
 3 C  py              0.0       0.0       0.0       0.0       0.2       0.0
 3 C  dx2y2           0.8       0.1       0.0       0.0       0.0       0.0
 4 C  s               2.2       0.2      13.1       4.1      28.2       5.1
 4 C  px              1.7       0.9       0.0       0.0       0.1       0.0
 4 C  py              3.1       1.0       0.0       0.1       0.0       0.0
 4 C  dz2             1.6       0.1       0.0       0.0       0.0       0.0
 4 C  dx2y2           0.7       0.2       0.0       0.0       0.0       0.0
 4 C  dxy             7.5       2.5       0.0       0.0       0.0       0.0
 5 C  s               0.2       0.1      14.7       9.2      26.7      10.6
 5 C  px              0.1       0.1       0.0       0.1       0.0       0.0
 5 C  py              1.1       0.1       0.0       0.0       0.0       0.0
 5 C  dz2             0.2       0.0       0.0       0.0       0.0       0.0
 5 C  dx2y2           1.3       0.3       0.0       0.0       0.0       0.0
 5 C  dxy             2.1       0.4       0.0       0.0       0.0       0.0
 6 O  s              21.4       4.3       0.1       0.0       0.1       0.0
 6 O  px             10.5       1.8       0.0       0.0       0.0       0.0
 6 O  py              3.4      21.3       0.0       0.0       0.0       0.0
 6 O  dz2            13.7       3.5       0.0       0.0       0.0       0.0
 6 O  dx2y2           3.3       1.6       0.0       0.0       0.0       0.0
 6 O  dxy             2.7      32.6       0.0       0.0       0.0       0.0
 7 Cl px              0.2       0.0       0.0       0.0       0.0       0.0
 8 H  s               0.8       0.0       0.0       0.0       0.0       0.0
 8 H  px              1.3       0.0       0.0       0.0       0.0       0.0
 9 H  s               0.6       0.0       0.0       0.0       0.0       0.0
 9 H  px              0.4       0.0       0.0       0.0       0.0       0.0
 9 H  py              0.7       0.0       0.0       0.0       0.0       0.0
10 H  s               0.5       0.0       0.0       0.0       0.0       0.0
10 H  px              0.2       0.0       0.0       0.0       0.0       0.0
10 H  py              0.6       0.0       0.0       0.0       0.0       0.0
11 H  s               1.2       0.1       0.0       0.0       0.0       0.0
11 H  px              0.4       0.0       0.0       0.0       0.0       0.0
11 H  py              1.4       0.2       0.0       0.0       0.0       0.0
12 H  s               1.3      12.9       0.0       0.0       0.0       0.0
12 H  px              0.6       4.4       0.0       0.0       0.0       0.0
12 H  py              1.7      10.4       0.0       0.0       0.0       0.0

                    186       187       188       189   
                  22.16457  22.31124  25.38810  43.61687
                   0.00000   0.00000   0.00000   0.00000
                  --------  --------  --------  --------
 0 C  s               2.0      20.0       0.0       0.0
 1 C  s              30.8      20.5       0.0       0.0
 2 C  s              10.5      18.0       0.0       0.0
 3 C  s               1.5       8.7       0.0       0.0
 3 C  px              0.0       0.0       0.4       0.0
 4 C  s              34.5      14.5       0.1       0.0
 5 C  s              20.3      18.0       0.0       0.0
 6 O  s               0.0       0.0       0.0      99.9
 7 Cl s               0.0       0.0      99.2       0.0
 7 Cl px              0.0       0.0       0.1       0.0


                      *****************************
                      * MAYER POPULATION ANALYSIS *
                      *****************************

  NA   - Mulliken gross atomic population
  ZA   - Total nuclear charge
  QA   - Mulliken gross atomic charge
  VA   - Mayer's total valence
  BVA  - Mayer's bonded valence
  FA   - Mayer's free valence

  ATOM       NA         ZA         QA         VA         BVA        FA
  0 C      6.1289     6.0000    -0.1289     3.8695     3.8695    -0.0000
  1 C      6.1673     6.0000    -0.1673     3.8430     3.8430    -0.0000
  2 C      6.1804     6.0000    -0.1804     3.8053     3.8053     0.0000
  3 C      5.9840     6.0000     0.0160     3.8805     3.8805    -0.0000
  4 C      5.6190     6.0000     0.3810     3.7067     3.7067    -0.0000
  5 C      6.3051     6.0000    -0.3051     3.7208     3.7208     0.0000
  6 O      8.4001     8.0000    -0.4001     2.0385     2.0385    -0.0000
  7 Cl    17.1366    17.0000    -0.1366     1.1399     1.1399    -0.0000
  8 H      0.8500     1.0000     0.1500     0.9676     0.9676     0.0000
  9 H      0.8487     1.0000     0.1513     0.9676     0.9676    -0.0000
 10 H      0.8365     1.0000     0.1635     0.9643     0.9643    -0.0000
 11 H      0.8602     1.0000     0.1398     0.9722     0.9722    -0.0000
 12 H      0.6832     1.0000     0.3168     0.8999     0.8999    -0.0000

  Mayer bond orders larger than 0.100000
B(  0-C ,  1-C ) :   1.4304 B(  0-C ,  5-C ) :   1.4064 B(  0-C ,  8-H ) :   0.9392 
B(  1-C ,  2-C ) :   1.3880 B(  1-C ,  9-H ) :   0.9471 B(  2-C ,  3-C ) :   1.3618 
B(  2-C , 10-H ) :   0.9407 B(  3-C ,  4-C ) :   1.4016 B(  3-C ,  7-Cl) :   0.9876 
B(  4-C ,  5-C ) :   1.2969 B(  4-C ,  6-O ) :   0.9880 B(  5-C , 11-H ) :   0.9447 
B(  6-O , 12-H ) :   0.8784 

-------
TIMINGS
-------

Total SCF time: 0 days 0 hours 0 min 21 sec 

Total time                  ....      21.699 sec
Sum of individual times     ....      20.581 sec  ( 94.8%)

SCF preparation             ....       0.165 sec  (  0.8%)
Fock matrix formation       ....      19.105 sec  ( 88.0%)
  Startup                   ....       0.055 sec  (  0.3% of F)
  Split-RI-J                ....       3.265 sec  ( 17.1% of F)
  XC integration            ....      15.254 sec  ( 79.8% of F)
    XC Preparation          ....       0.000 sec  (  0.0% of XC)
    Basis function eval.    ....       2.179 sec  ( 14.3% of XC)
    Density eval.           ....       3.970 sec  ( 26.0% of XC)
    XC-Functional eval.     ....       1.613 sec  ( 10.6% of XC)
    XC-Potential eval.      ....       4.736 sec  ( 31.0% of XC)
Diagonalization             ....       0.000 sec  (  0.0%)
Density matrix formation    ....       0.239 sec  (  1.1%)
Total Energy calculation    ....       0.032 sec  (  0.1%)
Population analysis         ....       0.090 sec  (  0.4%)
Orbital Transformation      ....       0.053 sec  (  0.2%)
Orbital Orthonormalization  ....       0.000 sec  (  0.0%)
DIIS solution               ....       0.848 sec  (  3.9%)
  MO trafo                  ....       0.000 sec  (  0.0 % of DIIS)
  Orb grad                  ....       0.000 sec  (  0.0 % of DIIS)
  Energy W gradient         ....       0.000 sec  (  0.0 % of DIIS)
  DIIS error                ....       0.010 sec  (  1.2 % of DIIS)
  DIIS work                 ....       0.791 sec  ( 93.4 % of DIIS)
  Form Q                    ....       0.000 sec  (  0.0 % of DIIS)
  Form QpQm                 ....       0.000 sec  (  0.0 % of DIIS)
  Exp/Cayley                ....       0.000 sec  (  0.0 % of DIIS)
  Orb update                ....       0.000 sec  (  0.0 % of DIIS)
  Wake-sleep                ....       0.021 sec  (  2.5 % of DIIS)
SOSCF solution              ....       0.048 sec  (  0.2%)
  MO trafo                  ....       0.037 sec  ( 76.6 % of SOSCF)
  Orb grad                  ....       0.001 sec  (  1.3 % of SOSCF)
  Rot update                ....       0.000 sec  (  0.1 % of SOSCF)
  Step                      ....       0.011 sec  ( 21.8 % of SOSCF)
Finished LeanSCF after  21.8 sec

Maximum memory used throughout the entire LEANSCF-calculation: 19.7 MB


-------------------------------------------------------------------------------
                          DFT DISPERSION CORRECTION                            
                                                                               
                                DFTD4 V3.4.0                                   
-------------------------------------------------------------------------------
The R2SCAN3C composite method is recognized
Using three-body term ABC
Active option DFTDOPT                   ...         5   

-------------------------   ----------------
Dispersion correction           -0.004532020
-------------------------   ----------------

------------------   -----------------
gCP correction             0.005246224
------------------   -----------------

-------------------------   --------------------
FINAL SINGLE POINT ENERGY      -766.978375068126
-------------------------   --------------------


------------------------------------------------------------------------------
                              ORCA PROPERTY CALCULATIONS
------------------------------------------------------------------------------

GBWName                                 ... sp_gas.gbw
Number of atoms                         ...     13
Number of basis functions               ...    190
Max core memory                         ...   1024 MB

Electric properties:
Dipole moment                           ... YES
Quadrupole moment                       ...  NO
Static polarizability (Dipole/Dipole)   ...  NO
Static polarizability (Dipole/Quad.)    ...  NO
Static polarizability (Quad./Quad.)     ...  NO
Static polarizability (Velocity)        ...  NO

Atomic electric properties:
Dipole moment                           ...  NO
Quadrupole moment                       ...  NO
Static polarizability                   ...  NO

Choice of electric origin               ... Center of mass
Position of electric origin             ...    -0.000033    -0.000017    -0.000000

General magnetic properties:
Magnetizability                         ...  NO

EPR properties:
g-Tensor (aka g-matrix)                 ...  NO
Zero-Field splitting spin-orbit         ...  NO
Zero-field splitting spin-spin          ...  NO
Hyperfine couplings                     ...  NO (   0 nuclei)
Quadrupole couplings                    ...  NO (   0 nuclei)
Contact density                         ...  NO (   0 nuclei)

NMR properties:
Chemical shifts                         ...  NO (   0 nuclei)
Spin-rotation constants                 ...  NO (   0 nuclei)
Spin-spin couplings                     ...  NO (   0 nuclei,    0 pairs)

Choice of magnetic origin               ... GIAO
Position of magnetic origin             ...     0.000000     0.000000     0.000000

Properties with geometric perturbations:
SCF Hessian                             ...  NO
IR spectrum                             ...  NO
VCD spectrum                            ...  NO
X-ray spectroscopy properties:
SCF XES/XAS/RIXS spectra                ...  NO


-------------
DIPOLE MOMENT
-------------

Method             : SCF
Type of density    : Electron Density
Multiplicity       :   1
Irrep              :   0
Energy             :  -766.9790892715047903 Eh
Relativity type    : 
Basis              : AO
                                X                 Y                 Z
Electronic contribution:      9.198333346      -0.360567656      -0.000085649
Nuclear contribution   :    -10.210667117       0.812722144       0.000066200
                        -----------------------------------------
Total Dipole Moment    :     -1.012333771       0.452154488      -0.000019449
                        -----------------------------------------
Magnitude (a.u.)       :      1.108721491
Magnitude (Debye)      :      2.818146068



--------------------
Rotational spectrum 
--------------------
 
Rotational constants in cm-1:             0.099444             0.051664             0.034000 
Rotational constants in MHz :          2981.260011          1548.836635          1019.290557 

Dipole components along the rotational axes: 
x,y,z [a.u.] :     1.007218     0.463438    -0.000036 
x,y,z [Debye]:     2.560146     1.177965    -0.000092 

 

Dipole moment calculation done in   0.0 sec 

Maximum memory used throughout the entire PROP-calculation: 11.6 MB

--------------------------------
SUGGESTED CITATIONS FOR THIS RUN
--------------------------------

Below you find a list of papers that are relevant to this ORCA run
We neither can nor want to force you to cite these papers, but we appreciate if you do
You receive ORCA, which is the product of decades of hard work by many enthusiastic individuals, for free
The only thing we kindly ask in return is that you cite our papers,
We deeply appreciate it, if you show your appreciation for ORCA by not just citing the generic ORCA reference.

Please note that relegating all ORCA citations to the supporting information does *not* help us.
SI sections are not indexed - citations you put there will not count into any citation statistics
But we need these citations in order to attract the funding resources that allow us to do what we are doing

Therefore, if you are a happy ORCA user, please consider citing a few of the papers listed below in the main body of your paper

In addition to the list printed below, the program has created the file sp_gas.bibtex that contains the list in bibtex format
You can import this file easily into all common literature databanks and citation aid programs


List of essential papers. We consider these as the minimum necessary citations

  1. Neese,F.
     Software update: the ORCA program system, version 5.0
     WIRES Comput. Molec. Sci., 2022 12(1)e1606
     doi.org/10.1002/wcms.1606
  2. Grimme,S.; Hansen,A.; Ehlert,S.; Mewes,J.
     r2SCAN-3c: A 'Swiss army knife' composite electronic-structure method
     J. Chem. Phys., 2021 154 064103
     doi.org/10.1063/5.0040021

List of papers to cite with high priority. The work reported in these papers was absolutely
necessary for this run to complete.
Our perspective: the developers of density functionals and basis sets usually get cited in chemistry papers
Good! But without the algorithms to do something with them, the functionals or basis sets would not do anything.
Hence, in our opinion, the algorithm design and method developments papers are equally worthy of getting cited

  1. Neese,F.
     An improvement of the resolution of the identity approximation for the formation of the Coulomb matrix
     J. Comp. Chem., 2003 24(14)1740-1747
     doi.org/10.1002/jcc.10318
  2. Neese,F.
     The SHARK Integral Generation and Digestion System
     J. Comp. Chem., 2022  1-16
     doi.org/10.1002/jcc.26942
  3. Lehtola,S.; Steigemann,C.; Oliveira,M.; Marques,M.
     Recent developments in Libxc - A comprehensive library of functionals for density functional theory
     Software X, 2018 7 
     doi.org/10.1016/j.softx.2017.11.002
  4. Caldeweyher,E.; Bannwarth,C.; Grimme,S.
     Extension of the D3 dispersion coefficient model
     J. Chem. Phys., 2017 147 034112-XXXX
     doi.org/10.1063/1.4993215
  5. Caldeweyher,E.; Ehlert,S.; Hansen,A.; Neugebauer,H.; Spicher,S.; Bannwarth,C.; Grimme,S.
     A generally applicable atomic-charge dependent London dispersion correction
     J. Chem. Phys., 2019 150 154122-XXXX
     doi.org/10.1063/1.5090222
  6. Caldeweyher,E.; Mewes,J.; Ehlert,S.; Grimme,S.
     Extension and evaluation of the D4 London-dispersion model for periodic systems
     Phys. Chem. Chem. Phys., 2020 22(16)8499-8512
     doi.org/10.1039/D0CP00502A

List of suggested additional citations. These are papers that are important in the 'surrounding' of 
of this run, or papers that preceded the highly important papers. If you like your results we are grateful for a citation.

  1. Neese,F.
     The ORCA program system
     WIRES Comput. Molec. Sci., 2012 2(1)73-78
     doi.org/10.1002/wcms.81
  2. Neese,F.
     Software update: the ORCA program system, version 4.0
     WIRES Comput. Molec. Sci., 2018 8(1)1-6
     doi.org/10.1002/wcms.1327
  3. Neese,F.; Wennmohs,F.; Becker,U.; Riplinger,C.
     The ORCA quantum chemistry program package
     J. Chem. Phys., 2020 152 Art. No. L224108
     doi.org/10.1063/5.0004608

List of optional additional citations

  1. Neese,F.
     Approximate second-order SCF convergence for spin unrestricted wavefunctions
     Chem. Phys. Lett., 2000 325(1-3)93-98
     doi.org/10.1016/s0009-2614(00)00662-x

Timings for individual modules:

Sum of individual times          ...       23.331 sec (=   0.389 min)
Startup calculation              ...        1.178 sec (=   0.020 min)   5.0 %
SCF iterations                   ...       22.048 sec (=   0.367 min)  94.5 %
Property calculations            ...        0.105 sec (=   0.002 min)   0.4 %
                             ****ORCA TERMINATED NORMALLY****
TOTAL RUN TIME: 0 days 0 hours 0 minutes 23 seconds 993 msec
