
                                 *****************
                                 * O   R   C   A *
                                 *****************

                                            #,                                       
                                            ###                                      
                                            ####                                     
                                            #####                                    
                                            ######                                   
                                           ########,                                 
                                     ,,################,,,,,                         
                               ,,#################################,,                 
                          ,,##########################################,,             
                       ,#########################################, ''#####,          
                    ,#############################################,,   '####,        
                  ,##################################################,,,,####,       
                ,###########''''           ''''###############################       
              ,#####''   ,,,,##########,,,,          '''####'''          '####       
            ,##' ,,,,###########################,,,                        '##       
           ' ,,###''''                  '''############,,,                           
         ,,##''                                '''############,,,,        ,,,,,,###''
      ,#''                                            '''#######################'''  
     '                                                          ''''####''''         
             ,#######,   #######,   ,#######,      ##                                
            ,#'     '#,  ##    ##  ,#'     '#,    #''#        ,####,   ,####,        
            ##       ##  ##   ,#'  ##            #'  '#       #'       #'  '#        
            ##       ##  #######   ##           ,######,      #####,   #    #        
            '#,     ,#'  ##    ##  '#,     ,#' ,#      #,     #,   #   #,  ,#        
             '#######'   ##     ##  '#######'  #'      '#     '####' # '####'        



                #########################################################
                #                        -***-                          #
                #          Department of theory and spectroscopy        #
                #                                                       #
                #                      Frank Neese                      #
                #                                                       #
                #     Directorship, Architecture, Infrastructure        #
                #                    SHARK, DRIVERS                     #
                #        Core code/Algorithms in most modules           #
                #                                                       #
                #        Max Planck Institute fuer Kohlenforschung      #
                #                Kaiser Wilhelm Platz 1                 #
                #                 D-45470 Muelheim/Ruhr                 #
                #                      Germany                          #
                #                                                       #
                #                  All rights reserved                  #
                #                        -***-                          #
                #########################################################


                         Program Version 6.0.0  -   RELEASE  -


 With contributions from (in alphabetic order):
   Daniel Aravena         : Magnetic Suceptibility
   Michael Atanasov       : Ab Initio Ligand Field Theory (pilot matlab implementation)
   Alexander A. Auer      : GIAO ZORA, VPT2 properties, NMR spectrum
   Ute Becker             : All parallelization in ORCA, NUMFREQ, NUMCALC
   Giovanni Bistoni       : ED, misc. LED, open-shell LED, HFLD
   Martin Brehm           : Molecular dynamics
   Dmytro Bykov           : pre 5.0 version of the SCF Hessian
   Marcos Casanova-Páez   : Triplet and SCS-CIS(D). UHF-(DLPNO)-IP/EA/STEOM-CCSD. UHF-CVS-IP/STEOM-CCSD
   Vijay G. Chilkuri      : MRCI spin determinant printing, contributions to CSF-ICE
   Pauline Colinet        : FMM embedding
   Dipayan Datta          : RHF DLPNO-CCSD density
   Achintya Kumar Dutta   : EOM-CC, STEOM-CC
   Nicolas Foglia         : Exact transition moments, OPA infrastructure, MCD improvements
   Dmitry Ganyushin       : Spin-Orbit,Spin-Spin,Magnetic field MRCI
   Miquel Garcia          : C-PCM and meta-GGA Hessian, CCSD/C-PCM, Gaussian charge scheme
   Tiago L. C. Gouveia    : GS-ROHF, GS-ROCIS
   Yang Guo               : DLPNO-NEVPT2, F12-NEVPT2, CIM, IAO-localization
   Andreas Hansen         : Spin unrestricted coupled pair/coupled cluster methods
   Ingolf Harden          : AUTO-CI MPn and infrastructure 
   Benjamin Helmich-Paris : MC-RPA, TRAH-(SCF,CASSCF), AVAS, COSX integrals, SCF dyn. polar.
   Lee Huntington         : MR-EOM, pCC
   Robert Izsak           : Overlap fitted RIJCOSX, COSX-SCS-MP3, EOM
   Riya Kayal             : Wick's Theorem for AUTO-CI, AUTO-CI UHF-CCSDT
   Emily Kempfer          : AUTO-CI, RHF CISDT and CCSDT
   Christian Kollmar      : KDIIS, OOCD, Brueckner-CCSD(T), CCSD density, CASPT2, CASPT2-K, improved NEVPT2
   Axel Koslowski         : Symmetry handling
   Simone Kossmann        : Meta GGA functionals, TD-DFT gradient, OOMP2, (MP2 Hessian; deprecated post 5.0)
   Lucas Lang             : DCDCAS
   Marvin Lechner         : AUTO-CI (C++ implementation), FIC-MRCC
   Spencer Leger          : CASSCF response
   Dagmar Lenk            : GEPOL surface, SMD, ORCA-2-JSON
   Dimitrios Liakos       : Extrapolation schemes; Compound Job, initial MDCI parallelization
   Dimitrios Manganas     : Further ROCIS development; embedding schemes. LFT, Crystal Embedding
   Dimitrios Pantazis     : SARC Basis sets
   Anastasios Papadopoulos: AUTO-CI, single reference methods and gradients
   Taras Petrenko         : pre 6.0 DFT Hessian and TD-DFT gradient, (ASA, deprecated), ECA, 1-Electron XAS/XES, NRVS
   Peter Pinski           : DLPNO-MP2, DLPNO-MP2 Gradient
   Christoph Reimann      : Effective Core Potentials
   Marius Retegan         : Local ZFS, SOC
   Christoph Riplinger    : Optimizer, TS searches, QM/MM, DLPNO-CCSD(T), (RO)-DLPNO pert. Triples
   Michael Roemelt        : Original ROCIS implementation
   Masaaki Saitow         : Open-shell DLPNO-CCSD energy and density
   Barbara Sandhoefer     : DKH picture change effects
   Kantharuban Sivalingam : CASSCF convergence/infrastructure, NEVPT2 and variants, FIC-MRCI
   Bernardo de Souza      : ESD, SOC TD-DFT
   Georgi Stoychev        : AutoAux, RI-MP2 NMR, DLPNO-MP2 response, X2C
   Van Anh Tran           : RI-MP2 g-tensors
   Willem Van den Heuvel  : Paramagnetic NMR
   Zikuan Wang            : NOTCH, Electric field optimization 
   Frank Wennmohs         : Technical directorship and infrastructure
   Hang Xu                : AUTO-CI-Response properties 


 We gratefully acknowledge several colleagues who have allowed us to
 interface, adapt or use parts of their codes:
   Stefan Grimme, W. Hujo, H. Kruse, P. Pracht,  : VdW corrections, initial TS optimization,
                  C. Bannwarth, S. Ehlert,         DFT functionals, gCP, sTDA/sTD-DF
                  L. Wittmann, M. Mueller
   Ed Valeev, F. Pavosevic, A. Kumar             : LibInt (2-el integral package), F12 methods
   Garnet Chan, S. Sharma, J. Yang, R. Olivares  : DMRG
   Ulf Ekstrom                                   : XCFun DFT Library
   Mihaly Kallay                                 : mrcc  (arbitrary order and MRCC methods)
   Frank Weinhold                                : gennbo (NPA and NBO analysis)
   Simon Mueller                                 : openCOSMO-RS
   Christopher J. Cramer and Donald G. Truhlar   : smd solvation model
   Lars Goerigk                                  : TD-DFT with DH, B97 family of functionals
   V. Asgeirsson, H. Jonsson                     : NEB implementation
   FAccTs GmbH                                   : IRC, NEB, NEB-TS, DLPNO-Multilevel, CI-OPT
                                                   MM, QMMM, 2- and 3-layer-ONIOM, Crystal-QMMM,
                                                   LR-CPCM, SF, NACMEs, symmetry and pop. for TD-DFT,
                                                   nearIR, NL-DFT gradient (VV10), updates on ESD,
                                                   ML-optimized integration grids, MBIS, APM,
                                                   GOAT, DOCKER, SOLVATOR, interface openCOSMO-RS
   S Lehtola, MJT Oliveira, MAL Marques          : LibXC Library
   Liviu Ungur et al                             : ANISO software


 Your calculation uses the libint2 library for the computation of 2-el integrals
 For citations please refer to: http://libint.valeyev.net

 Your ORCA version has been built with support for libXC version: 6.2.2
 For citations please refer to: https://libxc.gitlab.io

 This ORCA versions uses:
   CBLAS   interface :  Fast vector & matrix operations
   LAPACKE interface :  Fast linear algebra routines
   SCALAPACK package :  Parallel linear algebra routines
   Shared memory     :  Shared parallel matrices
   BLAS/LAPACK       :  OpenBLAS 0.3.27  USE64BITINT DYNAMIC_ARCH NO_AFFINITY SkylakeX SINGLE_THREADED
        Core in use  :  SkylakeX
   Copyright (c) 2011-2014, The OpenBLAS Project


Your calculation utilizes the geometrical counterpoise correction gCP
Please cite in your paper:
H.Kruse, S. Grimme J.Chem.Phys., 136, (2012), 154101 
   

Your calculation utilizes the atom-pairwise dispersion correction
based on EEQ partial charges (D4)


Your calculation utilizes the SMD solvation module
Please cite in your paper:
A.V. Marenich, C.J. Cramer, D.G. Truhlar J. Phys. Chem. B, 113, (2009), 6378 

================================================================================

----- Orbital basis set information -----
Your calculation utilizes the basis: def2-mTZVPP
   Stefan Grimme, Andreas Hansen, Sebastian Ehlert, and Jan-Michael Mewes 
   J. Chem. Phys. 154, 064103 (2021). DOI: 10.1063/5.0040021

----- AuxJ basis set information -----
Your calculation utilizes the auxiliary basis: def2/J
   F. Weigend, Phys. Chem. Chem. Phys. 8, 1057 (2006).

================================================================================
                                        WARNINGS
                       Please study these warnings very carefully!
================================================================================

Using LibXC functional ID 497 : Re-regularized SCAN exchange by Furness et al
[ 1]  J. W. Furness, A. D. Kaplan, J. Ning, J. P. Perdew, and J. Sun.,  J. Phys. Chem. Lett. 11, 8208-8215 (2020)
[ 2]  J. W. Furness, A. D. Kaplan, J. Ning, J. P. Perdew, and J. Sun.,  J. Phys. Chem. Lett. 11, 9248-9248 (2020)
Using LibXC functional ID 498 : Re-regularized SCAN correlation by Furness et al
[ 1]  J. W. Furness, A. D. Kaplan, J. Ning, J. P. Perdew, and J. Sun.,  J. Phys. Chem. Lett. 11, 8208-8215 (2020)
[ 2]  J. W. Furness, A. D. Kaplan, J. Ning, J. P. Perdew, and J. Sun.,  J. Phys. Chem. Lett. 11, 9248-9248 (2020)
Using LibXC functional ID 497 : Re-regularized SCAN exchange by Furness et al
[ 1]  J. W. Furness, A. D. Kaplan, J. Ning, J. P. Perdew, and J. Sun.,  J. Phys. Chem. Lett. 11, 8208-8215 (2020)
[ 2]  J. W. Furness, A. D. Kaplan, J. Ning, J. P. Perdew, and J. Sun.,  J. Phys. Chem. Lett. 11, 9248-9248 (2020)
Using LibXC functional ID 498 : Re-regularized SCAN correlation by Furness et al
[ 1]  J. W. Furness, A. D. Kaplan, J. Ning, J. P. Perdew, and J. Sun.,  J. Phys. Chem. Lett. 11, 8208-8215 (2020)
[ 2]  J. W. Furness, A. D. Kaplan, J. Ning, J. P. Perdew, and J. Sun.,  J. Phys. Chem. Lett. 11, 9248-9248 (2020)

================================================================================
                                       INPUT FILE
================================================================================
NAME = sp_solv.inp
|  1> ! r2scan-3c def2/J RI DEFGRID2 scfconv6 printgap
|  2> %output
|  3>     printlevel normal
|  4> end
|  5> %cpcm
|  6>     smd true
|  7>     smdsolvent "water"
|  8> end
|  9> * xyz 0 1
| 10> C -2.4120310508 -0.1022601896 -2.14241e-05
| 11> C -1.8290500351 -1.3573829805 0.0001219499
| 12> C -0.4492459924 -1.4755119422 1.85258e-05
| 13> C 0.3346590856 -0.3378544267 5.06121e-05
| 14> C -0.2368470412 0.9357533182 5.12237e-05
| 15> C -1.6244503704 1.034649066 -0.0001065202
| 16> O 0.5763674079 2.0179009477 7.52626e-05
| 17> Cl 2.0715018036 -0.4738047835 -7.17636e-05
| 18> H -3.4857993988 -0.0036043346 0.0001163622
| 19> H -2.4403231279 -2.2448040259 -1.13595e-05
| 20> H 0.025536951 -2.4428013056 -0.0001169904
| 21> H -2.0834290442 2.0117935893 -8.78485e-05
| 22> H 0.0549472505 2.8360002601 6.65427e-05
| 23> *
| 24> 
| 25>                          ****END OF INPUT****
================================================================================

                       ****************************
                       * Single Point Calculation *
                       ****************************

---------------------------------
CARTESIAN COORDINATES (ANGSTROEM)
---------------------------------
  C     -2.412031   -0.102260   -0.000021
  C     -1.829050   -1.357383    0.000122
  C     -0.449246   -1.475512    0.000019
  C      0.334659   -0.337854    0.000051
  C     -0.236847    0.935753    0.000051
  C     -1.624450    1.034649   -0.000107
  O      0.576367    2.017901    0.000075
  Cl     2.071502   -0.473805   -0.000072
  H     -3.485799   -0.003604    0.000116
  H     -2.440323   -2.244804   -0.000011
  H      0.025537   -2.442801   -0.000117
  H     -2.083429    2.011794   -0.000088
  H      0.054947    2.836000    0.000067

----------------------------
CARTESIAN COORDINATES (A.U.)
----------------------------
  NO LB      ZA    FRAG     MASS         X           Y           Z
   0 C     6.0000    0    12.011   -4.558078   -0.193244   -0.000040
   1 C     6.0000    0    12.011   -3.456404   -2.565082    0.000230
   2 C     6.0000    0    12.011   -0.848952   -2.788313    0.000035
   3 C     6.0000    0    12.011    0.632414   -0.638452    0.000096
   4 C     6.0000    0    12.011   -0.447576    1.768318    0.000097
   5 C     6.0000    0    12.011   -3.069766    1.955203   -0.000201
   6 O     8.0000    0    15.999    1.089177    3.813280    0.000142
   7 Cl   17.0000    0    35.453    3.914571   -0.895361   -0.000136
   8 H     1.0000    0     1.008   -6.587206   -0.006811    0.000220
   9 H     1.0000    0     1.008   -4.611542   -4.242065   -0.000021
  10 H     1.0000    0     1.008    0.048258   -4.616225   -0.000221
  11 H     1.0000    0     1.008   -3.937110    3.801739   -0.000166
  12 H     1.0000    0     1.008    0.103835    5.359264    0.000126

--------------------------------
INTERNAL COORDINATES (ANGSTROEM)
--------------------------------
 C      0   0   0     0.000000000000     0.00000000     0.00000000
 C      1   0   0     1.383907549463     0.00000000     0.00000000
 C      2   1   0     1.384851493316   119.80730762     0.00000000
 C      3   2   1     1.381583075648   119.67553493     0.00000000
 C      4   3   2     1.395956998206   121.26393246     0.00000000
 C      1   2   3     1.383056756192   120.37418326     0.00000000
 O      5   4   3     1.353647381276   118.90858841   180.00039300
 Cl     4   3   2     1.742155314993   120.09318993   179.99973965
 H      1   2   3     1.078290991281   120.16347617   180.00358576
 H      2   1   3     1.077576411941   120.52617756   180.02006080
 H      3   2   1     1.077528456355   121.03690941   180.01512727
 H      6   1   2     1.079570675207   120.12805671   180.00800571
 H      7   5   4     0.970136828271   110.56417115   179.99960144

---------------------------
INTERNAL COORDINATES (A.U.)
---------------------------
 C      0   0   0     0.000000000000     0.00000000     0.00000000
 C      1   0   0     2.615206263150     0.00000000     0.00000000
 C      2   1   0     2.616990058520   119.80730762     0.00000000
 C      3   2   1     2.610813644236   119.67553493     0.00000000
 C      4   3   2     2.637976421340   121.26393246     0.00000000
 C      1   2   3     2.613598496873   120.37418326     0.00000000
 O      5   4   3     2.558022832511   118.90858841   180.00039300
 Cl     4   3   2     3.292196428093   120.09318993   179.99973965
 H      1   2   3     2.037674666195   120.16347617   180.00358576
 H      2   1   3     2.036324306942   120.52617756   180.02006080
 H      3   2   1     2.036233684018   121.03690941   180.01512727
 H      6   1   2     2.040092918354   120.12805671   180.00800571
 H      7   5   4     1.833292917864   110.56417115   179.99960144

---------------------
BASIS SET INFORMATION
---------------------
There are 4 groups of distinct atoms

 Group   1 Type C   : 11s6p1d contracted to 5s3p1d pattern {62111/411/1}
 Group   2 Type O   : 11s6p2d contracted to 5s3p2d pattern {62111/411/11}
 Group   3 Type Cl  : 14s9p2d contracted to 5s4p2d pattern {73211/6111/11}
 Group   4 Type H   : 4s1p contracted to 2s1p pattern {31/1}

Atom   0C    basis set group =>   1
Atom   1C    basis set group =>   1
Atom   2C    basis set group =>   1
Atom   3C    basis set group =>   1
Atom   4C    basis set group =>   1
Atom   5C    basis set group =>   1
Atom   6O    basis set group =>   2
Atom   7Cl   basis set group =>   3
Atom   8H    basis set group =>   4
Atom   9H    basis set group =>   4
Atom  10H    basis set group =>   4
Atom  11H    basis set group =>   4
Atom  12H    basis set group =>   4
---------------------------------
AUXILIARY/J BASIS SET INFORMATION
---------------------------------
There are 4 groups of distinct atoms

 Group   1 Type C   : 12s5p4d2f1g contracted to 6s4p3d1f1g pattern {711111/2111/211/2/1}
 Group   2 Type O   : 12s5p4d2f1g contracted to 6s4p3d1f1g pattern {711111/2111/211/2/1}
 Group   3 Type Cl  : 14s5p5d2f1g contracted to 8s4p3d1f1g pattern {71111111/2111/311/2/1}
 Group   4 Type H   : 5s2p1d contracted to 3s1p1d pattern {311/2/1}

Atom   0C    basis set group =>   1
Atom   1C    basis set group =>   1
Atom   2C    basis set group =>   1
Atom   3C    basis set group =>   1
Atom   4C    basis set group =>   1
Atom   5C    basis set group =>   1
Atom   6O    basis set group =>   2
Atom   7Cl   basis set group =>   3
Atom   8H    basis set group =>   4
Atom   9H    basis set group =>   4
Atom  10H    basis set group =>   4
Atom  11H    basis set group =>   4
Atom  12H    basis set group =>   4

Checking for AutoStart:
The File: sp_solv.gbw exists
Trying to determine its content:
     ... Fine, the file contains calculation information
     ... Fine, the calculation information was read
     ... Fine, the file contains a basis set
     ... Fine, the basis set was read
     ... Fine, the file contains a geometry
     ... Fine, the geometry was read
     ... Fine, the file contains a set of orbitals
     ... Fine, the orbitals can be read
     => possible old guess file was deleted
     => GBW file was renamed to GES file
     => GES file is set as startup file
     => Guess is set to MORead
     ... now leaving AutoStart

------------------------------------------------------------------------------
                             ORCA STARTUP CALCULATIONS
                           -- RI-GTO INTEGRALS CHOSEN --
------------------------------------------------------------------------------
------------------------------------------------------------------------------
                   ___                                                        
                  /   \      - P O W E R E D   B Y -                         
                 /     \                                                     
                 |  |  |   _    _      __       _____    __    __             
                 |  |  |  | |  | |    /  \     |  _  \  |  |  /  |          
                  \  \/   | |  | |   /    \    | | | |  |  | /  /          
                 / \  \   | |__| |  /  /\  \   | |_| |  |  |/  /          
                |  |  |   |  __  | /  /__\  \  |    /   |      \           
                |  |  |   | |  | | |   __   |  |    \   |  |\   \          
                \     /   | |  | | |  |  |  |  | |\  \  |  | \   \       
                 \___/    |_|  |_| |__|  |__|  |_| \__\ |__|  \__/        
                                                                              
                      - O R C A' S   B I G   F R I E N D -                    
                                      &                                       
                       - I N T E G R A L  F E E D E R -                       
                                                                              
 v1 FN, 2020, v2 2021, v3 2022-2024                                           
------------------------------------------------------------------------------


----------------------
SHARK INTEGRAL PACKAGE
----------------------

Number of atoms                             ...     13
Number of basis functions                   ...    190
Number of shells                            ...     90
Maximum angular momentum                    ...      2
Integral batch strategy                     ... SHARK/LIBINT Hybrid
RI-J (if used) integral strategy            ... SPLIT-RIJ (Revised 2003 algorithm where possible)
Printlevel                                  ...      1
Contraction scheme used                     ... SEGMENTED contraction
Prescreening option                         ... SCHWARTZ
   Thresh                                   ... 1.000e-10
   Tcut                                     ... 1.000e-11
   Tpresel                                  ... 1.000e-11 
Coulomb Range Separation                    ... NOT USED
Exchange Range Separation                   ... NOT USED
Multipole approximations                    ... NOT USED
Finite Nucleus Model                        ... NOT USED
CABS basis                                  ... NOT available
Auxiliary Coulomb fitting basis             ... AVAILABLE
   # of basis functions in Aux-J            ...    449
   # of shells in Aux-J                     ...    147
   Maximum angular momentum in Aux-J        ...      4
Auxiliary J/K fitting basis                 ... NOT available
Auxiliary Correlation fitting basis         ... NOT available
Auxiliary 'external' fitting basis          ... NOT available

Checking pre-screening integrals            ... done (  0.0 sec) Dimension = 90
Check shell pair data                       ... done (  0.0 sec)
Shell pair information
Shell pair cut-off parameter TPreSel        ...   1.0e-11
Total number of shell pairs                 ...      4095
Shell pairs after pre-screening             ...      3711
Total number of primitive shell pairs       ...     15962
Primitive shell pairs kept                  ...     10208
          la=0 lb=0:   1095 shell pairs
          la=1 lb=0:   1370 shell pairs
          la=1 lb=1:    439 shell pairs
          la=2 lb=0:    464 shell pairs
          la=2 lb=1:    288 shell pairs
          la=2 lb=2:     55 shell pairs

Calculating one electron integrals          ... done (  0.0 sec)
Calculating RI/J V-Matrix + Cholesky decomp.... done (  0.1 sec)
Calculating Nuclear repulsion               ... done (  0.0 sec) ENN=    406.972067568029 Eh

Diagonalization of the overlap matrix:
Smallest eigenvalue                        ... 2.787e-05
Time for diagonalization                   ...    0.004 sec
Threshold for overlap eigenvalues          ... 1.000e-07
Number of eigenvalues below threshold      ... 0
Time for construction of square roots      ...    0.014 sec
Total time needed                          ...    0.027 sec

-------------------
DFT GRID GENERATION
-------------------

General Integration Accuracy     IntAcc      ... 4.388
Radial Grid Type                 RadialGrid  ... OptM3 with GC (2021)
Angular Grid (max. ang.)         AngularGrid ... 4 (Lebedev-302)
Angular grid pruning method      GridPruning ... 4 (adaptive)
Weight generation scheme         WeightScheme... mBecke (2022)
Basis function cutoff            BFCut       ... 1.0000e-10
Integration weight cutoff        WCut        ... 1.0000e-14
Partially contracted basis set               ... off
Rotationally invariant grid construction     ... off
Angular grids for H and He will be reduced by one unit
Diffuse basis detected: some atoms will have their outermost
                        angular grid increased by 1.

Total number of grid points                  ...    65887
Total number of batches                      ...     1039
Average number of points per batch           ...       63
Average number of grid points per atom       ...     5068
Initializing property integral containers    ... done (  0.0 sec)

SHARK setup successfully completed in   1.2 seconds

Maximum memory used throughout the entire STARTUP-calculation: 30.8 MB
-------------------------------------------------------------------------------
                                 ORCA GUESS
                   Start orbitals & Density for SCF / CASSCF
-------------------------------------------------------------------------------

------------
SCF SETTINGS
------------
Hamiltonian:
 Density Functional     Method          .... DFT(GTOs)
  Functional kind                       .... Exchange
  Functional name                       .... Re-regularized SCAN exchange by Furness et al
  Functional family                     .... MGGA
  Functional refs                              
    [ 0] J. W. Furness, A. D. Kaplan, J. Ning, J. P. Perdew, and J. Sun.,  J. Phys. Chem. Lett. 11, 8208-8215 (2020), doi: 10.1021/acs.jpclett.0c02405
    [ 1] J. W. Furness, A. D. Kaplan, J. Ning, J. P. Perdew, and J. Sun.,  J. Phys. Chem. Lett. 11, 9248-9248 (2020), doi: 10.1021/acs.jpclett.0c03077
  Functional external parameters        .... 6
    Parameter  0 _c1        =  6.670000e-01 : c1 parameter        
    Parameter  1 _c2        =  8.000000e-01 : c2 parameter        
    Parameter  2 _d         =  1.240000e+00 : d parameter         
    Parameter  3 _k1        =  6.500000e-02 : k1 parameter        
    Parameter  4 _eta       =  1.000000e-03 : eta parameter       
    Parameter  5 _dp2       =  3.610000e-01 : dp2 parameter       
  Functional kind                       .... Correlation
  Functional name                       .... Re-regularized SCAN correlation by Furness et al
  Functional family                     .... MGGA
  Functional refs                              
    [ 0] J. W. Furness, A. D. Kaplan, J. Ning, J. P. Perdew, and J. Sun.,  J. Phys. Chem. Lett. 11, 8208-8215 (2020), doi: 10.1021/acs.jpclett.0c02405
    [ 1] J. W. Furness, A. D. Kaplan, J. Ning, J. P. Perdew, and J. Sun.,  J. Phys. Chem. Lett. 11, 9248-9248 (2020), doi: 10.1021/acs.jpclett.0c03077
  Functional external parameters        .... 1
    Parameter  0 _eta       =  1.000000e-03 : Regularization parameter
 Gradients option       PostSCFGGA      .... off
 RI-approximation to the Coulomb term is turned on
   Number of AuxJ basis functions       .... 449


General Settings:
 Integral files         IntName         .... sp_solv
 Hartree-Fock type      HFTyp           .... RHF
 Total Charge           Charge          ....    0
 Multiplicity           Mult            ....    1
 Number of Electrons    NEL             ....   66
 Basis Dimension        Dim             ....  190
 Nuclear Repulsion      ENuc            ....    406.9720675680 Eh

Convergence Acceleration:
 AO-DIIS                CNVDIIS         .... on
   Start iteration      DIISMaxIt       ....    12
   Startup error        DIISStart       ....  0.200000
   # of expansion vecs  DIISMaxEq       ....     5
   Bias factor          DIISBfac        ....   1.050
   Max. coefficient     DIISMaxC        ....  10.000
 MO-DIIS                CNVKDIIS        .... off
 Trust-Rad. Augm. Hess. CNVTRAH         .... auto
   Auto Start mean grad. ratio tolernc. ....  1.125000
   Auto Start start iteration           ....     1
   Auto Start num. interpolation iter.  ....    10
   Max. Number of Micro iterations      ....    24
   Max. Number of Macro iterations      .... Maxiter - #DIIS iter
   Number of Davidson start vectors     ....     2
   Converg. threshold    (grad. norm)   ....   3.330e-04
   Grad. Scal. Fac. for Micro threshold ....   0.100
   Minimum threshold for Micro iter.    ....   1.000e-02
   NR start threshold (gradient norm)   ....   1.000e-04
   Initial trust radius                 ....   0.400
   Minimum AH scaling param. (alpha)    ....   1.000
   Maximum AH scaling param. (alpha)    .... 1000.000
   Quad. conv. algorithm                .... NR
   White noise on init. David. guess    .... on
   Maximum white noise                  ....   0.010
   Pseudo random numbers                .... off
   Inactive MOs                         .... canonical
   Orbital update algorithm             .... Taylor
   Preconditioner                       .... Diag
   Full preconditioner red. dimension   ....   250
   COSX micro iterations for RIJONX calc.... off
 SOSCF                  CNVSOSCF        .... on
   Start iteration      SOSCFMaxIt      ....   150
   Startup grad/error   SOSCFStart      ....  0.003300
   Hessian update       SOSCFHessUp     .... L-BFGS
 Level Shifting         CNVShift        .... on
   Level shift para.    LevelShift      ....    0.2500
   Turn off err/grad.   ShiftErr        ....    0.0010
 Zerner damping         CNVZerner       .... off
 Static damping         CNVDamp         .... on
   Fraction old density DampFac         ....    0.7000
   Max. Damping (<1)    DampMax         ....    0.9800
   Min. Damping (>=0)   DampMin         ....    0.0000
   Turn off err/grad.   DampErr         ....    0.1000

SCF Procedure:
 Maximum # iterations   MaxIter         ....   125
 SCF integral mode      SCFMode         .... Direct
   Integral package                     .... SHARK and LIBINT hybrid scheme
 Reset frequency        DirectResetFreq ....    20
 Integral Threshold     Thresh          ....  1.000e-10 Eh
 Primitive CutOff       TCut            ....  1.000e-11 Eh

Convergence Tolerance:
 Convergence Check Mode ConvCheckMode   .... Total+1el-Energy
 Convergence forced     ConvForced      .... 0
 Energy Change          TolE            ....  1.000e-06 Eh
 1-El. energy change                    ....  1.000e-03 Eh
 Orbital Gradient       TolG            ....  3.330e-04
 Orbital Rotation angle TolX            ....  3.330e-04
 DIIS Error             TolErr          ....  1.000e-06

---------------------
INITIAL GUESS: MOREAD
---------------------
Guess MOs are being read from file: sp_solv.ges
Input Geometry matches current geometry (good)
Atom 0: N(Shells)= 9 and 6 - projection required
Input basis set needs projection
NBasis(read)= 126
NBasis(calc)= 190
Basis set overlap was calculated
Using GuessMode=FMatrix for the initial guess
C*T matrix was formed
Effective Fockian was calculated
Effective Fockian was diagonalized
Initial density was built
                      ------------------
                      INITIAL GUESS DONE (   0.1 sec)
                      ------------------
             **** ENERGY FILE WAS UPDATED (sp_solv.en.tmp) ****
Finished Guess after   0.3 sec
Maximum memory used throughout the entire GUESS-calculation: 13.1 MB

-------------------------------------------------------------------------------------------
                                      ORCA LEAN-SCF
                              memory conserving SCF solver
-------------------------------------------------------------------------------------------

--------------------
CPCM SOLVATION MODEL
--------------------
CPCM parameters:
  Epsilon                                         ...      78.3550
  Refrac                                          ...       1.3328
  Rsolv                                           ...       1.3000
  Surface type                                    ... GAUSSIAN VDW
  Discretization scheme                           ... Constant charge density
    Threshold for H atoms                         ...       5.0000 (charges/Ang^2)
    Threshold for non-H atoms                     ...       5.0000 (charges/Ang^2)
  Epsilon function type                           ...         CPCM
Solvent:                                          ... WATER
SMD-CDS solvent descriptors:
  Soln                                            ...       1.3328
  Soln25                                          ...       1.3323
  Sola                                            ...       0.0000
  Solb                                            ...       0.0000
  Solg                                            ...       0.0000
  Solc                                            ...       0.0000
  Solh                                            ...       0.0000
Radii:
  Scheme                                          ... Element-dependent radii
  Radius for C  used is    3.4960 Bohr (=   1.8500 Ang.)
  Radius for O  used is    2.8724 Bohr (=   1.5200 Ang.)
  Radius for Cl used is    4.4975 Bohr (=   2.3800 Ang.)
  Radius for H  used is    2.2677 Bohr (=   1.2000 Ang.)
Calculating surface                               ...        done! (  0.0s)
Cavity surface points                             ...         1114
Cavity Volume                                     ...     927.9804
Cavity Surface-area                               ...     544.3435
Calculating surface distance matrix               ...        done! (  0.0s)
Performing Cholesky decomposition & store         ...        done! (  0.1s)
Overall time for CPCM initialization              ...                 0.1s

----------------------------------------D-I-I-S--------------------------------------------
Iteration    Energy (Eh)           Delta-E    RMSDP     MaxDP     DIISErr   Damp  Time(sec)
-------------------------------------------------------------------------------------------
               ***  Starting incremental Fock matrix formation  ***
    1    -766.8204582550590658     0.00e+00  1.68e-02  5.42e-01  6.21e-01  0.700   2.7
    2    -766.8720868229866028    -5.16e-02  1.25e-02  3.92e-01  4.37e-01  0.700   3.3
    3    -766.9086779114406909    -3.66e-02  8.83e-03  2.73e-01  3.06e-01  0.700   2.7
    4    -766.9344012968795141    -2.57e-02  6.21e-03  1.90e-01  2.15e-01  0.700   2.6
                               ***Turning on AO-DIIS***
    5    -766.9524614544218366    -1.81e-02  4.38e-03  1.31e-01  1.50e-01  0.700   2.2
    6    -766.9651291659968138    -1.27e-02  3.08e-03  9.10e-02  1.05e-01  0.700   2.3
    7    -766.9740161807264940    -8.89e-03  2.16e-03  6.34e-02  7.35e-02  0.700   2.3
    8    -766.9802458906185620    -6.23e-03  5.04e-03  1.48e-01  5.15e-02  0.000   2.3
                              *** Initializing SOSCF ***
---------------------------------------S-O-S-C-F--------------------------------------
Iteration    Energy (Eh)           Delta-E    RMSDP     MaxDP     MaxGrad    Time(sec)
--------------------------------------------------------------------------------------
    9    -766.9948118740767313    -1.46e-02  2.55e-05  5.47e-04  1.68e-04     2.2
               *** Restarting incremental Fock matrix formation ***
   10    -766.9948120684318837    -1.94e-07  1.99e-05  3.56e-04  8.95e-05     2.4
   11    -766.9948116274647418     4.41e-07  8.00e-06  1.89e-04  1.79e-04     3.0
                 **** Energy Check signals convergence ****

               *****************************************************
               *                     SUCCESS                       *
               *           SCF CONVERGED AFTER  11 CYCLES          *
               *****************************************************


SMD CDS free energy correction energy :                 3.39328     Kcal/mol
Total Energy after SMD CDS correction =              -766.989404097 Eh
             **** ENERGY FILE WAS UPDATED (sp_solv.en.tmp) ****

----------------
TOTAL SCF ENERGY
----------------

Total Energy       :       -766.98940409701640 Eh          -20870.84274 eV

Components:
Nuclear Repulsion  :        406.97206756802899 Eh           11074.27296 eV
Electronic Energy  :      -1173.94765684295135 Eh          -31944.73978 eV
One Electron Energy:      -1858.87875106980459 Eh          -50582.66239 eV
Two Electron Energy:        684.93109422685325 Eh           18637.92261 eV
CPCM Dielectric    :         -0.01922235254234 Eh              -0.52307 eV
SMD CDS (Gcds)     :          0.00540753044832 Eh               0.14715 eV

Virial components:
Potential Energy   :      -1531.73054164144423 Eh          -41680.50703 eV
Kinetic Energy     :        764.74113754442772 Eh           20809.66430 eV
Virial Ratio       :          2.00293990533817

DFT components:
N(Alpha)           :       33.000005578192 electrons
N(Beta)            :       33.000005578192 electrons
N(Total)           :       66.000011156383 electrons
E(X)               :      -68.885078939642 Eh       
E(C)               :       -2.266918055810 Eh       
E(XC)              :      -71.151996995452 Eh       

CPCM Solvation Model Properties:
Surface-charge          :         -0.02925064719277
Corrected charge        :         -0.00000000000000
Outlying charge corr.   :          0.00006575451938 Eh               0.00179 eV
Free-energy (cav+disp)  :          0.00540753044832 Eh               0.14715 eV

---------------
SCF CONVERGENCE
---------------

  Last Energy change         ...   -4.4097e-07  Tolerance :   1.0000e-06
  Last MAX-Density change    ...    1.8906e-04  Tolerance :   1.0000e-05
  Last RMS-Density change    ...    8.0025e-06  Tolerance :   1.0000e-06
  Last DIIS Error            ...    1.6837e-04  Tolerance :   1.0000e-06
  Last Orbital Gradient      ...    1.7899e-04  Tolerance :   3.3300e-04
  Last Orbital Rotation      ...    3.3913e-04  Tolerance :   3.3300e-04


----------------
ORBITAL ENERGIES
----------------

  NO   OCC          E(Eh)            E(eV) 
   0   2.0000    -101.222803     -2754.4125 
   1   2.0000     -18.990446      -516.7563 
   2   2.0000     -10.110606      -275.1236 
   3   2.0000     -10.096369      -274.7362 
   4   2.0000     -10.045617      -273.3551 
   5   2.0000     -10.040452      -273.2146 
   6   2.0000     -10.039763      -273.1958 
   7   2.0000     -10.035046      -273.0675 
   8   2.0000      -9.378618      -255.2052 
   9   2.0000      -7.124804      -193.8758 
  10   2.0000      -7.115000      -193.6090 
  11   2.0000      -7.114359      -193.5916 
  12   2.0000      -1.036825       -28.2134 
  13   2.0000      -0.858178       -23.3522 
  14   2.0000      -0.806313       -21.9409 
  15   2.0000      -0.721004       -19.6195 
  16   2.0000      -0.703474       -19.1425 
  17   2.0000      -0.605540       -16.4776 
  18   2.0000      -0.570401       -15.5214 
  19   2.0000      -0.522503       -14.2180 
  20   2.0000      -0.470553       -12.8044 
  21   2.0000      -0.452362       -12.3094 
  22   2.0000      -0.418113       -11.3774 
  23   2.0000      -0.403400       -10.9771 
  24   2.0000      -0.402116       -10.9421 
  25   2.0000      -0.371199       -10.1008 
  26   2.0000      -0.340855        -9.2751 
  27   2.0000      -0.334642        -9.1061 
  28   2.0000      -0.320709        -8.7269 
  29   2.0000      -0.312573        -8.5055 
  30   2.0000      -0.287913        -7.8345 
  31   2.0000      -0.237638        -6.4665 
  32   2.0000      -0.212796        -5.7905 
  33   0.0000      -0.042218        -1.1488 
  34   0.0000      -0.025926        -0.7055 
  35   0.0000       0.007075         0.1925 
  36   0.0000       0.079916         2.1746 
  37   0.0000       0.114014         3.1025 
  38   0.0000       0.116570         3.1720 
  39   0.0000       0.118844         3.2339 
  40   0.0000       0.137474         3.7409 
  41   0.0000       0.153605         4.1798 
  42   0.0000       0.165716         4.5094 
  43   0.0000       0.186804         5.0832 
*Only the first 10 virtual orbitals were printed.

                    ********************************
                    * MULLIKEN POPULATION ANALYSIS *
                    ********************************

-----------------------
MULLIKEN ATOMIC CHARGES
-----------------------
   0 C :   -0.154192
   1 C :   -0.212207
   2 C :   -0.204023
   3 C :    0.012548
   4 C :    0.330249
   5 C :   -0.300473
   6 O :   -0.440581
   7 Cl:   -0.165858
   8 H :    0.185798
   9 H :    0.186300
  10 H :    0.194561
  11 H :    0.191526
  12 H :    0.376352
Sum of atomic charges:   -0.0000000

--------------------------------
MULLIKEN REDUCED ORBITAL CHARGES
--------------------------------
  0 C s       :     3.207711  s :     3.207711
      pz      :     0.981315  p :     2.908171
      px      :     1.034748
      py      :     0.892108
      dz2     :     0.003230  d :     0.038310
      dxz     :     0.002464
      dyz     :     0.007611
      dx2y2   :     0.013081
      dxy     :     0.011923

  1 C s       :     3.230974  s :     3.230974
      pz      :     1.017621  p :     2.943751
      px      :     0.931375
      py      :     0.994755
      dz2     :     0.003245  d :     0.037481
      dxz     :     0.005398
      dyz     :     0.003802
      dx2y2   :     0.012293
      dxy     :     0.012743

  2 C s       :     3.218857  s :     3.218857
      pz      :     0.992229  p :     2.947815
      px      :     0.971088
      py      :     0.984498
      dz2     :     0.003357  d :     0.037352
      dxz     :     0.006773
      dyz     :     0.003695
      dx2y2   :     0.009910
      dxy     :     0.013617

  3 C s       :     3.180002  s :     3.180002
      pz      :     1.093618  p :     2.755667
      px      :     0.719600
      py      :     0.942449
      dz2     :     0.003933  d :     0.051783
      dxz     :     0.007635
      dyz     :     0.007085
      dx2y2   :     0.017510
      dxy     :     0.015621

  4 C s       :     3.075982  s :     3.075982
      pz      :     0.967323  p :     2.519773
      px      :     0.759809
      py      :     0.792641
      dz2     :     0.004936  d :     0.073996
      dxz     :     0.010887
      dyz     :     0.013861
      dx2y2   :     0.020914
      dxy     :     0.023398

  5 C s       :     3.268319  s :     3.268319
      pz      :     1.041901  p :     2.996382
      px      :     0.902135
      py      :     1.052346
      dz2     :     0.003378  d :     0.035772
      dxz     :     0.005799
      dyz     :     0.003181
      dx2y2   :     0.013563
      dxy     :     0.009851

  6 O s       :     3.752871  s :     3.752871
      pz      :     1.838085  p :     4.657748
      px      :     1.606269
      py      :     1.213394
      dz2     :     0.005655  d :     0.029961
      dxz     :     0.003339
      dyz     :     0.002314
      dx2y2   :     0.008179
      dxy     :     0.010475

  7 Cls       :     5.941016  s :     5.941016
      pz      :     3.936321  p :    11.170832
      px      :     3.268226
      py      :     3.966285
      dz2     :     0.005559  d :     0.054010
      dxz     :     0.019752
      dyz     :     0.000635
      dx2y2   :     0.017376
      dxy     :     0.010689

  8 H s       :     0.794615  s :     0.794615
      pz      :     0.003959  p :     0.019586
      px      :     0.012510
      py      :     0.003117

  9 H s       :     0.793964  s :     0.793964
      pz      :     0.004214  p :     0.019736
      px      :     0.006075
      py      :     0.009446

 10 H s       :     0.785607  s :     0.785607
      pz      :     0.003968  p :     0.019832
      px      :     0.004867
      py      :     0.010997

 11 H s       :     0.788682  s :     0.788682
      pz      :     0.004201  p :     0.019792
      px      :     0.004804
      py      :     0.010787

 12 H s       :     0.581316  s :     0.581316
      pz      :     0.011014  p :     0.042333
      px      :     0.012212
      py      :     0.019107


------------------------
MULLIKEN OVERLAP CHARGES
------------------------
B(  0-C ,  1-C ) :   0.8880 B(  0-C ,  2-C ) :  -0.1010 B(  0-C ,  3-C ) :  -0.0866 
B(  0-C ,  5-C ) :   0.6114 B(  0-C ,  8-H ) :   0.8176 B(  0-C ,  9-H ) :  -0.0723 
B(  1-C ,  2-C ) :   0.7696 B(  1-C ,  3-C ) :  -0.1018 B(  1-C ,  4-C ) :  -0.1103 
B(  1-C ,  5-C ) :  -0.0979 B(  1-C ,  8-H ) :  -0.0661 B(  1-C ,  9-H ) :   0.8290 
B(  2-C ,  3-C ) :   0.6808 B(  2-C ,  4-C ) :   0.0562 B(  2-C ,  5-C ) :  -0.2060 
B(  2-C ,  7-Cl) :  -0.1143 B(  2-C ,  9-H ) :  -0.0706 B(  2-C , 10-H ) :   0.8205 
B(  3-C ,  4-C ) :   0.8207 B(  3-C ,  5-C ) :  -0.0981 B(  3-C ,  6-O ) :  -0.0701 
B(  3-C ,  7-Cl) :   0.4958 B(  3-C , 10-H ) :  -0.0751 B(  4-C ,  5-C ) :   0.6992 
B(  4-C ,  6-O ) :   0.5414 B(  4-C ,  7-Cl) :  -0.1670 B(  4-C , 11-H ) :  -0.0837 
B(  4-C , 12-H ) :  -0.0913 B(  5-C ,  6-O ) :  -0.1930 B(  5-C ,  8-H ) :  -0.0609 
B(  5-C , 11-H ) :   0.8244 B(  6-O , 12-H ) :   0.6375 


                     *******************************
                     * LOEWDIN POPULATION ANALYSIS *
                     *******************************

----------------------
LOEWDIN ATOMIC CHARGES
----------------------
   0 C :   -0.161082
   1 C :   -0.188240
   2 C :   -0.170096
   3 C :   -0.162087
   4 C :    0.162952
   5 C :   -0.155751
   6 O :   -0.512241
   7 Cl:    0.130986
   8 H :    0.181802
   9 H :    0.181281
  10 H :    0.189232
  11 H :    0.191107
  12 H :    0.312135

-------------------------------
LOEWDIN REDUCED ORBITAL CHARGES
-------------------------------
  0 C s       :     2.904559  s :     2.904559
      pz      :     0.968463  p :     3.173174
      px      :     1.109907
      py      :     1.094804
      dz2     :     0.005459  d :     0.083349
      dxz     :     0.003591
      dyz     :     0.014294
      dx2y2   :     0.031683
      dxy     :     0.028322

  1 C s       :     2.903347  s :     2.903347
      pz      :     1.007290  p :     3.203052
      px      :     1.089544
      py      :     1.106219
      dz2     :     0.005505  d :     0.081841
      dxz     :     0.009750
      dyz     :     0.006335
      dx2y2   :     0.029316
      dxy     :     0.030937

  2 C s       :     2.905394  s :     2.905394
      pz      :     0.983895  p :     3.182295
      px      :     1.105681
      py      :     1.092719
      dz2     :     0.005818  d :     0.082407
      dxz     :     0.012531
      dyz     :     0.006344
      dx2y2   :     0.024779
      dxy     :     0.032936

  3 C s       :     2.888087  s :     2.888087
      pz      :     1.072586  p :     3.163748
      px      :     0.989821
      py      :     1.101342
      dz2     :     0.007689  d :     0.110252
      dxz     :     0.014026
      dyz     :     0.012389
      dx2y2   :     0.038895
      dxy     :     0.037253

  4 C s       :     2.783760  s :     2.783760
      pz      :     0.917747  p :     2.891251
      px      :     1.032043
      py      :     0.941462
      dz2     :     0.010984  d :     0.162037
      dxz     :     0.019857
      dyz     :     0.026897
      dx2y2   :     0.049281
      dxy     :     0.055017

  5 C s       :     2.897563  s :     2.897563
      pz      :     1.023721  p :     3.180077
      px      :     1.043660
      py      :     1.112697
      dz2     :     0.005680  d :     0.078111
      dxz     :     0.010499
      dyz     :     0.005055
      dx2y2   :     0.031370
      dxy     :     0.025507

  6 O s       :     3.479050  s :     3.479050
      pz      :     1.804295  p :     4.761558
      px      :     1.635916
      py      :     1.321347
      dz2     :     0.032844  d :     0.271633
      dxz     :     0.028861
      dyz     :     0.041922
      dx2y2   :     0.075774
      dxy     :     0.092231

  7 Cls       :     5.646646  s :     5.646646
      pz      :     3.908601  p :    11.109256
      px      :     3.303974
      py      :     3.896681
      dz2     :     0.013943  d :     0.113113
      dxz     :     0.034968
      dyz     :     0.000609
      dx2y2   :     0.042739
      dxy     :     0.020854

  8 H s       :     0.772444  s :     0.772444
      pz      :     0.008800  p :     0.045754
      px      :     0.029964
      py      :     0.006989

  9 H s       :     0.772478  s :     0.772478
      pz      :     0.009507  p :     0.046240
      px      :     0.014197
      py      :     0.022536

 10 H s       :     0.764413  s :     0.764413
      pz      :     0.008945  p :     0.046355
      px      :     0.011158
      py      :     0.026251

 11 H s       :     0.762628  s :     0.762628
      pz      :     0.009629  p :     0.046265
      px      :     0.010797
      py      :     0.025838

 12 H s       :     0.567338  s :     0.567338
      pz      :     0.028594  p :     0.120526
      px      :     0.037172
      py      :     0.054760


---------------------------------
LOEWDIN BOND ORDERS (THRESH 0.050000)
---------------------------------
B(  0-C ,  1-C ) :   1.4982 B(  0-C ,  2-C ) :   0.0897 B(  0-C ,  3-C ) :   0.1151 
B(  0-C ,  4-C ) :   0.0947 B(  0-C ,  5-C ) :   1.5134 B(  0-C ,  8-H ) :   0.8675 
B(  0-C ,  9-H ) :   0.0536 B(  0-C , 11-H ) :   0.0532 B(  1-C ,  2-C ) :   1.4991 
B(  1-C ,  3-C ) :   0.0985 B(  1-C ,  4-C ) :   0.1046 B(  1-C ,  5-C ) :   0.0908 
B(  1-C ,  8-H ) :   0.0535 B(  1-C ,  9-H ) :   0.8683 B(  1-C , 10-H ) :   0.0528 
B(  2-C ,  3-C ) :   1.4518 B(  2-C ,  4-C ) :   0.0917 B(  2-C ,  5-C ) :   0.1237 
B(  2-C ,  7-Cl) :   0.1537 B(  2-C ,  9-H ) :   0.0548 B(  2-C , 10-H ) :   0.8621 
B(  3-C ,  4-C ) :   1.2501 B(  3-C ,  5-C ) :   0.0914 B(  3-C ,  6-O ) :   0.2202 
B(  3-C ,  7-Cl) :   1.3842 B(  3-C , 10-H ) :   0.0545 B(  4-C ,  5-C ) :   1.3252 
B(  4-C ,  6-O ) :   1.5090 B(  4-C ,  7-Cl) :   0.1401 B(  4-C , 11-H ) :   0.0547 
B(  5-C ,  6-O ) :   0.2175 B(  5-C ,  8-H ) :   0.0552 B(  5-C , 11-H ) :   0.8559 
B(  6-O ,  7-Cl) :   0.0826 B(  6-O , 12-H ) :   0.9222 

------------------------------------------
LOEWDIN REDUCED ORBITAL POPULATIONS PER MO
-------------------------------------------
THRESHOLD FOR PRINTING IS 0.1%%
                      0         1         2         3         4         5   
                 -101.22280 -18.99045 -10.11061 -10.09637 -10.04562 -10.04045
                   2.00000   2.00000   2.00000   2.00000   2.00000   2.00000
                  --------  --------  --------  --------  --------  --------
 0 C  s               0.0       0.0       0.0       0.0       0.0      13.4
 1 C  px              0.0       0.0       0.0       0.0       0.1       0.0
 2 C  s               0.0       0.0       0.0       0.0      99.5       0.0
 3 C  s               0.0       0.0       0.0      99.5       0.0       0.0
 3 C  py              0.0       0.0       0.1       0.0       0.1       0.0
 4 C  s               0.0       0.0      99.2       0.0       0.0       0.0
 4 C  px              0.0       0.0       0.0       0.0       0.0       0.1
 4 C  py              0.0       0.0       0.0       0.1       0.0       0.0
 5 C  s               0.0       0.0       0.0       0.0       0.0      86.1
 5 C  px              0.0       0.0       0.1       0.0       0.0       0.0
 6 O  s               0.0      99.9       0.0       0.0       0.0       0.0
 6 O  dxy             0.0       0.0       0.2       0.0       0.0       0.0
 7 Cl s             100.0       0.0       0.0       0.0       0.0       0.0

                      6         7         8         9        10        11   
                 -10.03976 -10.03505  -9.37862  -7.12480  -7.11500  -7.11436
                   2.00000   2.00000   2.00000   2.00000   2.00000   2.00000
                  --------  --------  --------  --------  --------  --------
 0 C  s              85.9       0.3       0.0       0.0       0.0       0.0
 0 C  py              0.0       0.1       0.0       0.0       0.0       0.0
 1 C  s               0.2      99.3       0.0       0.0       0.0       0.0
 2 C  px              0.0       0.1       0.0       0.0       0.0       0.0
 3 C  px              0.0       0.0       0.2       0.0       0.0       0.0
 5 C  s              13.5       0.0       0.0       0.0       0.0       0.0
 7 Cl s               0.0       0.0      99.8       0.0       0.0       0.0
 7 Cl pz              0.0       0.0       0.0       0.0     100.0       0.0
 7 Cl px              0.0       0.0       0.0      99.1       0.0       0.8
 7 Cl py              0.0       0.0       0.0       0.8       0.0      99.2

                     12        13        14        15        16        17   
                  -1.03683  -0.85818  -0.80631  -0.72100  -0.70347  -0.60554
                   2.00000   2.00000   2.00000   2.00000   2.00000   2.00000
                  --------  --------  --------  --------  --------  --------
 0 C  s               0.1       3.5      12.3       0.5      15.9       1.2
 0 C  px              0.1       1.3       1.7       0.1       0.2       0.5
 0 C  py              0.0       0.0       0.0       9.1       0.2       8.6
 0 C  dz2             0.0       0.0       0.1       0.0       0.1       0.0
 0 C  dxy             0.0       0.0       0.0       0.3       0.0       0.2
 1 C  s               0.0       4.7       9.4      11.4       5.3       4.8
 1 C  px              0.0       1.2       0.1       3.0       3.9       4.8
 1 C  py              0.0       0.6       1.8       1.2       1.8       0.3
 1 C  dz2             0.0       0.1       0.1       0.1       0.0       0.0
 1 C  dx2y2           0.0       0.0       0.0       0.2       0.1       0.1
 2 C  s               0.1       9.9       2.8      17.1       2.5       5.4
 2 C  px              0.0       0.3       3.9       1.2       2.9       4.0
 2 C  py              0.1       2.8       0.1       0.4       1.3       0.2
 2 C  dz2             0.0       0.1       0.0       0.1       0.0       0.0
 2 C  dx2y2           0.0       0.0       0.0       0.1       0.1       0.0
 3 C  s               1.1      22.5       0.4       0.2       8.6       0.0
 3 C  px              0.0       1.0      14.4       0.6       6.5       0.3
 3 C  py              1.6       0.2       0.0       8.9       0.5      12.8
 3 C  dz2             0.0       0.3       0.0       0.0       0.0       0.0
 3 C  dx2y2           0.0       0.1       0.2       0.0       0.3       0.0
 3 C  dxy             0.0       0.0       0.0       0.3       0.0       0.1
 4 C  s              10.7       4.9       1.9       7.5       6.1       2.2
 4 C  px              3.0       0.1       5.1       4.3       0.8      11.4
 4 C  py              6.2       6.5       0.1       0.2       3.7       0.8
 4 C  dz2             0.4       0.0       0.0       0.0       0.0       0.0
 4 C  dx2y2           0.1       0.0       0.0       0.2       0.1       0.0
 4 C  dxy             0.6       0.1       0.0       0.0       0.1       0.0
 5 C  s               0.9       3.5       9.6      15.5       1.6       7.5
 5 C  px              1.6       0.3       0.1       0.7       6.2       0.1
 5 C  py              0.1       1.2       1.9       0.2       1.0       1.7
 5 C  dz2             0.0       0.0       0.1       0.1       0.0       0.0
 5 C  dx2y2           0.0       0.0       0.0       0.1       0.1       0.0
 5 C  dxy             0.0       0.0       0.0       0.0       0.2       0.0
 6 O  s              58.4       2.0       0.2       2.1       0.9       0.1
 6 O  px              2.5       0.1       0.2       0.6       0.1       0.4
 6 O  py              0.3       1.1       0.0       2.7       3.6      16.7
 6 O  dz2             0.2       0.2       0.0       0.2       0.1       0.0
 6 O  dx2y2           0.0       0.1       0.1       0.0       0.2       0.6
 6 O  dxy             0.1       0.1       0.4       0.7       0.7       0.2
 7 Cl s               0.1      25.7      28.7       0.7      15.5       0.2
 7 Cl px              0.1       2.1       0.4       0.1       1.7       0.0
 7 Cl py              0.0       0.0       0.0       0.1       0.0       0.8
 7 Cl dz2             0.0       0.2       0.0       0.0       0.1       0.0
 7 Cl dx2y2           0.0       0.4       0.1       0.0       0.2       0.0
 7 Cl dxy             0.0       0.0       0.0       0.0       0.0       0.2
 8 H  s               0.0       0.3       1.2       0.1       3.1       0.5
 8 H  px              0.0       0.0       0.1       0.0       0.3       0.0
 9 H  s               0.0       0.4       0.9       1.9       1.0       1.9
 9 H  py              0.0       0.0       0.1       0.1       0.1       0.1
10 H  s               0.0       0.9       0.2       3.0       0.4       2.5
10 H  py              0.0       0.1       0.0       0.2       0.0       0.2
11 H  s               0.1       0.3       0.9       2.6       0.4       3.5
11 H  py              0.0       0.0       0.1       0.2       0.0       0.2
12 H  s               8.9       0.6       0.0       0.9       1.0       4.1
12 H  px              0.5       0.1       0.0       0.1       0.1       0.2
12 H  py              1.7       0.1       0.0       0.1       0.1       0.2

                     18        19        20        21        22        23   
                  -0.57040  -0.52250  -0.47055  -0.45236  -0.41811  -0.40340
                   2.00000   2.00000   2.00000   2.00000   2.00000   2.00000
                  --------  --------  --------  --------  --------  --------
 0 C  s               7.3       1.5       0.3       0.9       0.9       0.0
 0 C  pz              0.0       0.0       0.0       0.0       0.0       3.2
 0 C  px              2.0       4.2       6.4       0.3      14.6       0.0
 0 C  py              1.0       4.3       3.9       8.8       0.8       0.0
 0 C  dx2y2           0.0       0.0       0.0       0.0       0.3       0.0
 0 C  dxy             0.0       0.0       0.0       0.1       0.1       0.0
 1 C  s               4.8       0.8       1.8       0.5       1.5       0.0
 1 C  pz              0.0       0.0       0.0       0.0       0.0       2.8
 1 C  px              2.0       0.1      13.9       2.9       0.8       0.0
 1 C  py              6.8       0.9       5.5      10.8       3.8       0.0
 2 C  s               0.7       3.5       1.0       0.1       1.0       0.0
 2 C  pz              0.0       0.0       0.0       0.0       0.0       5.6
 2 C  px              8.1       3.0       2.5       7.9       1.8       0.0
 2 C  py              5.1       5.9       0.5       3.1      10.0       0.0
 2 C  dx2y2           0.2       0.0       0.0       0.1       0.3       0.0
 2 C  dxy             0.1       0.0       0.2       0.0       0.0       0.0
 3 C  s               7.1       0.2       2.7       0.3       0.3       0.0
 3 C  pz              0.0       0.0       0.0       0.0       0.0      17.7
 3 C  px              0.0       2.0       4.8       1.1       5.2       0.0
 3 C  py              0.3       3.0       0.0      11.8       4.0       0.0
 3 C  dx2y2           0.0       0.1       0.0       0.0       0.3       0.0
 3 C  dxy             0.0       0.1       0.1       0.1       0.2       0.0
 4 C  s               2.5       0.1       0.3       0.6       2.3       0.0
 4 C  pz              0.0       0.0       0.0       0.0       0.0      26.7
 4 C  px              3.9       5.4       1.4       2.6       0.3       0.0
 4 C  py              5.1       7.5       0.2       8.2       4.4       0.0
 4 C  dx2y2           0.2       0.0       0.0       0.0       0.1       0.0
 4 C  dxy             0.0       0.2       0.6       0.3       0.0       0.0
 5 C  s               1.1       0.8       0.2       1.9       0.8       0.0
 5 C  pz              0.0       0.0       0.0       0.0       0.0       8.0
 5 C  px              7.7       8.4       1.4       8.4       1.5       0.0
 5 C  py              4.5       1.5       9.5       0.5       2.2       0.0
 5 C  dxz             0.0       0.0       0.0       0.0       0.0       0.1
 5 C  dx2y2           0.1       0.0       0.1       0.1       0.4       0.0
 5 C  dxy             0.1       0.2       0.1       0.1       0.0       0.0
 6 O  s               1.2       0.1       1.3       0.8       0.1       0.0
 6 O  pz              0.0       0.0       0.0       0.0       0.0      26.5
 6 O  px              2.5       0.1       4.4      10.4       0.0       0.0
 6 O  py              4.3      25.6       4.1       3.0       2.4       0.0
 6 O  dz2             0.0       0.1       0.2       0.0       0.0       0.0
 6 O  dxz             0.0       0.0       0.0       0.0       0.0       0.4
 6 O  dyz             0.0       0.0       0.0       0.0       0.0       0.8
 6 O  dx2y2           0.5       0.1       0.0       0.7       0.2       0.0
 6 O  dxy             0.4       0.2       0.0       0.3       0.1       0.0
 7 Cl s               4.8       0.8       3.0       0.4       1.3       0.0
 7 Cl pz              0.0       0.0       0.0       0.0       0.0       7.0
 7 Cl px              4.9       1.1      14.5       1.8      14.9       0.0
 7 Cl py              0.0       0.0       0.1       3.7       0.0       0.0
 7 Cl dz2             0.1       0.0       0.1       0.0       0.0       0.0
 7 Cl dxz             0.0       0.0       0.0       0.0       0.0       0.4
 7 Cl dx2y2           0.4       0.0       0.6       0.0       0.2       0.0
 7 Cl dxy             0.0       0.0       0.0       0.4       0.0       0.0
 8 H  s               4.0       2.8       1.2       0.6       9.6       0.0
 8 H  px              0.3       0.2       0.0       0.0       0.3       0.0
 9 H  s               2.8       0.0       8.7       2.1       0.4       0.0
 9 H  px              0.1       0.0       0.1       0.2       0.0       0.0
 9 H  py              0.1       0.0       0.4       0.0       0.0       0.0
10 H  s               0.6       5.8       0.0       0.0       8.1       0.0
10 H  py              0.0       0.3       0.0       0.0       0.2       0.0
11 H  s               0.7       2.3       2.3       3.4       3.1       0.0
11 H  px              0.1       0.0       0.1       0.0       0.0       0.0
11 H  py              0.0       0.2       0.0       0.2       0.1       0.0
12 H  s               0.9       5.9       1.5       0.2       0.6       0.0
12 H  pz              0.0       0.0       0.0       0.0       0.0       0.4
12 H  px              0.2       0.3       0.0       0.2       0.0       0.0
12 H  py              0.0       0.1       0.0       0.0       0.0       0.0

                     24        25        26        27        28        29   
                  -0.40212  -0.37120  -0.34085  -0.33464  -0.32071  -0.31257
                   2.00000   2.00000   2.00000   2.00000   2.00000   2.00000
                  --------  --------  --------  --------  --------  --------
 0 C  s               0.5       0.4       0.1       0.0       0.1       0.0
 0 C  pz              0.0       0.0       0.0       1.6       0.0      21.8
 0 C  px              9.2       2.6       0.7       0.0      11.3       0.0
 0 C  py              0.2       1.0      15.1       0.0       1.1       0.0
 0 C  dxz             0.0       0.0       0.0       0.0       0.0       0.1
 0 C  dx2y2           0.0       0.2       0.0       0.0       0.9       0.0
 0 C  dxy             0.1       0.1       0.5       0.0       0.0       0.0
 1 C  s               0.1       0.2       0.1       0.0       0.0       0.0
 1 C  pz              0.0       0.0       0.0       5.4       0.0      18.5
 1 C  px              0.4      13.4       0.8       0.0       6.0       0.0
 1 C  py              0.3       1.0      17.4       0.0       2.3       0.0
 1 C  dyz             0.0       0.0       0.0       0.0       0.0       0.1
 1 C  dx2y2           0.3       0.2       0.0       0.0       0.4       0.0
 1 C  dxy             0.1       0.2       0.9       0.0       0.0       0.0
 2 C  s               0.2       0.2       0.6       0.0       0.2       0.0
 2 C  pz              0.0       0.0       0.0      10.6       0.0       5.0
 2 C  px              1.2      10.2       0.2       0.0       5.4       0.0
 2 C  py             17.2       0.2       4.3       0.0       2.5       0.0
 2 C  dxz             0.0       0.0       0.0       0.0       0.0       0.2
 2 C  dx2y2           0.0       0.1       0.0       0.0       0.3       0.0
 2 C  dxy             0.2       0.1       0.7       0.0       0.1       0.0
 3 C  s               0.7       0.0       0.3       0.0       0.3       0.0
 3 C  pz              0.0       0.0       0.0      11.2       0.0       1.0
 3 C  px             10.0       1.7       0.5       0.0       1.0       0.0
 3 C  py              0.4       3.1       2.5       0.0       3.0       0.0
 3 C  dxz             0.0       0.0       0.0       0.0       0.0       0.3
 3 C  dyz             0.0       0.0       0.0       0.2       0.0       0.0
 3 C  dx2y2           0.0       0.1       0.0       0.0       0.6       0.0
 3 C  dxy             0.2       0.0       0.0       0.0       0.0       0.0
 4 C  s               0.1       0.2       0.1       0.0       0.0       0.0
 4 C  pz              0.0       0.0       0.0       3.5       0.0       0.1
 4 C  px              1.6       1.2       0.4       0.0       9.3       0.0
 4 C  py              0.1       0.6       0.7       0.0       1.1       0.0
 4 C  dxz             0.0       0.0       0.0       0.1       0.0       0.2
 4 C  dyz             0.0       0.0       0.0       0.6       0.0       0.0
 4 C  dx2y2           0.4       0.5       0.2       0.0       0.7       0.0
 4 C  dxy             0.1       0.1       0.4       0.0       0.1       0.0
 5 C  s               0.3       1.4       0.1       0.0       0.1       0.0
 5 C  pz              0.0       0.0       0.0       0.1       0.0      10.7
 5 C  px              3.4       0.5       2.1       0.0       9.7       0.0
 5 C  py             17.4       0.0      12.1       0.0       1.0       0.0
 5 C  dyz             0.0       0.0       0.0       0.0       0.0       0.1
 5 C  dx2y2           0.0       0.0       0.0       0.0       0.6       0.0
 5 C  dxy             0.2       0.1       0.3       0.0       0.0       0.0
 6 O  s               0.0       4.9       0.3       0.0       1.5       0.0
 6 O  pz              0.0       0.0       0.0      36.9       0.0       4.8
 6 O  px              0.0      37.1       8.5       0.0      13.3       0.0
 6 O  py              0.1       1.0       0.6       0.0       0.2       0.0
 6 O  dz2             0.0       0.2       0.1       0.0       0.0       0.0
 6 O  dxz             0.0       0.0       0.0       0.2       0.0       0.1
 6 O  dx2y2           0.0       0.3       0.0       0.0       0.7       0.0
 6 O  dxy             0.0       0.3       0.0       0.0       0.4       0.0
 7 Cl s               1.1       0.1       0.0       0.0       0.1       0.0
 7 Cl pz              0.0       0.0       0.0      28.5       0.0      36.3
 7 Cl px             13.0       2.9       0.1       0.0       6.7       0.0
 7 Cl py              0.0       0.9       7.7       0.0       0.1       0.0
 7 Cl dxz             0.0       0.0       0.0       0.3       0.0       0.1
 7 Cl dxy             0.0       0.1       0.1       0.0       0.0       0.0
 8 H  s               2.8       3.0       0.4       0.0       9.1       0.0
 8 H  pz              0.0       0.0       0.0       0.0       0.0       0.2
 8 H  py              0.0       0.0       0.2       0.0       0.0       0.0
 9 H  s               0.1       5.6      11.5       0.0       0.1       0.0
 9 H  pz              0.0       0.0       0.0       0.0       0.0       0.1
 9 H  px              0.0       0.0       0.1       0.0       0.0       0.0
 9 H  py              0.0       0.2       0.0       0.0       0.0       0.0
10 H  s               7.9       0.2       4.3       0.0       4.2       0.0
10 H  py              0.1       0.0       0.0       0.0       0.1       0.0
11 H  s               9.5       0.4       4.5       0.0       3.6       0.0
11 H  px              0.0       0.0       0.1       0.0       0.0       0.0
11 H  py              0.2       0.0       0.0       0.0       0.0       0.0
12 H  s               0.0       2.5       0.1       0.0       1.3       0.0
12 H  pz              0.0       0.0       0.0       0.6       0.0       0.1
12 H  px              0.0       0.2       0.0       0.0       0.1       0.0
12 H  py              0.0       0.2       0.1       0.0       0.1       0.0

                     30        31        32        33        34        35   
                  -0.28791  -0.23764  -0.21280  -0.04222  -0.02593   0.00707
                   2.00000   2.00000   2.00000   0.00000   0.00000   0.00000
                  --------  --------  --------  --------  --------  --------
 0 C  s               0.0       0.0       0.0       0.0       0.0       0.5
 0 C  pz              0.0      14.7       7.2      20.1      11.1       0.0
 0 C  px              0.1       0.0       0.0       0.0       0.0       0.1
 0 C  py              0.5       0.0       0.0       0.0       0.0       0.0
 0 C  dxz             0.0       0.0       0.0       0.2       0.1       0.0
 0 C  dyz             0.0       0.3       0.4       0.4       0.9       0.0
 1 C  s               0.1       0.0       0.0       0.0       0.0       0.6
 1 C  pz              0.0       2.6      21.0       0.4      29.6       0.0
 1 C  px              1.0       0.0       0.0       0.0       0.0       0.6
 1 C  py              0.6       0.0       0.0       0.0       0.0       0.2
 1 C  dxz             0.0       0.4       0.0       1.0       0.0       0.0
 1 C  dyz             0.0       0.1       0.0       0.4       0.2       0.0
 1 C  dxy             0.1       0.0       0.0       0.0       0.0       0.3
 2 C  s               0.4       0.0       0.0       0.0       0.0       0.0
 2 C  pz              0.0      27.6       0.4      25.3       6.2       0.0
 2 C  px              2.4       0.0       0.0       0.0       0.0       0.1
 2 C  py              0.9       0.0       0.0       0.0       0.0       1.4
 2 C  dxz             0.0       0.0       0.4       0.1       1.1       0.0
 2 C  dyz             0.0       0.1       0.1       0.4       0.1       0.0
 2 C  dx2y2           0.0       0.0       0.0       0.0       0.0       1.2
 2 C  dxy             0.1       0.0       0.0       0.0       0.0       0.5
 3 C  s               0.0       0.0       0.0       0.0       0.0       7.0
 3 C  pz              0.0       8.7      15.1      18.6       6.0       0.0
 3 C  px              0.1       0.0       0.0       0.0       0.0      21.3
 3 C  py              2.6       0.0       0.0       0.0       0.0       0.4
 3 C  dz2             0.0       0.0       0.0       0.0       0.0       0.8
 3 C  dxz             0.0       0.2       0.1       0.1       0.0       0.0
 3 C  dyz             0.0       0.2       0.2       0.5       1.1       0.0
 3 C  dx2y2           0.0       0.0       0.0       0.0       0.0       1.1
 3 C  dxy             0.8       0.0       0.0       0.0       0.0       0.1
 4 C  s               0.3       0.0       0.0       0.0       0.0       0.4
 4 C  pz              0.0       0.6      15.1       0.2      26.0       0.0
 4 C  px              0.6       0.0       0.0       0.0       0.0       0.9
 4 C  py              1.5       0.0       0.0       0.0       0.0       2.1
 4 C  dxz             0.0       0.5       0.2       0.9       0.0       0.0
 4 C  dyz             0.0       0.0       0.7       0.5       0.0       0.0
 4 C  dx2y2           0.0       0.0       0.0       0.0       0.0       0.7
 4 C  dxy             0.0       0.0       0.0       0.0       0.0       1.3
 5 C  s               0.1       0.0       0.0       0.0       0.0       0.4
 5 C  pz              0.0      26.2       6.3      23.2       3.7       0.0
 5 C  px              0.0       0.0       0.0       0.0       0.0       0.8
 5 C  py              0.8       0.0       0.0       0.0       0.0       0.1
 5 C  dxz             0.0       0.0       0.3       0.1       1.3       0.0
 5 C  dyz             0.0       0.1       0.0       0.4       0.1       0.0
 5 C  dxy             0.1       0.0       0.0       0.0       0.0       0.6
 6 O  s               0.2       0.0       0.0       0.0       0.0       0.8
 6 O  pz              0.0       2.3      19.8       0.0       5.4       0.0
 6 O  px              1.4       0.0       0.0       0.0       0.0       0.9
 6 O  py              0.0       0.0       0.0       0.0       0.0       0.6
 6 O  dxz             0.0       0.1       0.6       0.5       1.1       0.0
 6 O  dyz             0.0       0.0       1.2       0.5       2.4       0.0
 6 O  dxy             0.7       0.0       0.0       0.0       0.0       0.2
 7 Cl s               0.0       0.0       0.0       0.0       0.0       5.5
 7 Cl pz              0.0      14.1       9.5       1.9       0.7       0.0
 7 Cl px              1.0       0.0       0.0       0.0       0.0      26.4
 7 Cl py             81.3       0.0       0.0       0.0       0.0       0.4
 7 Cl dz2             0.0       0.0       0.0       0.0       0.0       3.6
 7 Cl dxz             0.0       0.4       0.6       2.2       1.1       0.0
 7 Cl dyz             0.0       0.0       0.0       0.2       0.1       0.0
 7 Cl dx2y2           0.0       0.0       0.0       0.0       0.0      12.6
 7 Cl dxy             0.1       0.0       0.0       0.0       0.0       0.4
 8 H  pz              0.0       0.2       0.1       0.6       0.3       0.0
 9 H  s               1.0       0.0       0.0       0.0       0.0       0.7
 9 H  pz              0.0       0.0       0.3       0.0       0.9       0.0
 9 H  px              0.0       0.0       0.0       0.0       0.0       0.1
10 H  s               0.0       0.0       0.0       0.0       0.0       2.0
10 H  pz              0.0       0.3       0.0       0.8       0.2       0.0
10 H  py              0.0       0.0       0.0       0.0       0.0       0.2
11 H  s               0.6       0.0       0.0       0.0       0.0       1.2
11 H  pz              0.0       0.3       0.1       0.7       0.1       0.0
11 H  px              0.0       0.0       0.0       0.0       0.0       0.1
12 H  s               0.0       0.0       0.0       0.0       0.0       0.3
12 H  pz              0.0       0.0       0.4       0.0       0.2       0.0
12 H  py              0.0       0.0       0.0       0.0       0.0       0.1

                     36        37        38        39        40        41   
                   0.07992   0.11401   0.11657   0.11884   0.13747   0.15360
                   0.00000   0.00000   0.00000   0.00000   0.00000   0.00000
                  --------  --------  --------  --------  --------  --------
 0 C  s               2.2      12.0       0.0       0.0       5.9       4.8
 0 C  pz              0.0       0.0       0.0      14.9       0.0       0.0
 0 C  px              0.6       7.5       5.2       0.0       2.8       6.8
 0 C  py              0.3       0.1       0.4       0.0       4.1       4.5
 0 C  dz2             0.2       0.0       0.1       0.0       0.0       0.0
 0 C  dxz             0.0       0.0       0.0       0.5       0.0       0.0
 0 C  dx2y2           0.1       1.4       0.9       0.0       0.1       0.0
 0 C  dxy             0.0       0.0       0.0       0.0       0.0       0.4
 1 C  s               1.5      12.7       2.2       0.0       3.3       4.6
 1 C  pz              0.0       0.0       0.0      14.2       0.0       0.0
 1 C  px              0.1       2.2       1.4       0.0       2.1      14.8
 1 C  py              0.1       4.0       0.1       0.0      13.4       0.9
 1 C  dz2             0.0       0.1       0.3       0.0       0.6       0.0
 1 C  dxz             0.0       0.0       0.0       0.1       0.0       0.0
 1 C  dyz             0.0       0.0       0.0       0.3       0.0       0.0
 1 C  dx2y2           0.0       0.3       0.1       0.0       0.0       0.7
 1 C  dxy             0.1       0.7       0.0       0.0       0.2       0.0
 2 C  s               1.8      11.4       8.8       0.0       0.3       7.9
 2 C  pz              0.0       0.0       0.0      12.9       0.0       0.0
 2 C  px              0.5       0.3       3.1       0.0       0.6       3.4
 2 C  py              0.5       2.3       1.3       0.0      14.0      11.0
 2 C  dz2             0.1       0.0       0.2       0.0       0.1       0.8
 2 C  dyz             0.0       0.0       0.0       0.4       0.0       0.0
 2 C  dx2y2           0.0       0.1       0.0       0.0       0.6       0.0
 2 C  dxy             0.0       0.2       0.0       0.0       0.1       0.1
 3 C  s               7.6       2.4      10.0       0.0       1.7       1.4
 3 C  pz              0.0       0.0       0.0      12.0       0.0       0.0
 3 C  px              0.6       2.2       2.3       0.0       0.2       1.0
 3 C  py              0.9       0.3       0.4       0.0       0.7       0.8
 3 C  dz2             0.0       0.5       0.6       0.0       0.0       0.2
 3 C  dxz             0.0       0.0       0.0       0.5       0.0       0.0
 3 C  dx2y2           0.2       0.3       0.0       0.0       0.2       0.2
 3 C  dxy             0.1       0.0       0.0       0.0       0.6       0.5
 4 C  s               9.5       2.1       2.2       0.0       3.7       0.0
 4 C  pz              0.0       0.0       0.0      16.4       0.0       0.0
 4 C  px              2.3       1.1       1.3       0.0       0.1       1.5
 4 C  py              5.3       3.9       2.8       0.0       1.6       0.5
 4 C  dz2             1.2       0.0       0.4       0.0       0.6       0.0
 4 C  dx2y2           0.2       0.0       0.2       0.0       0.1       0.2
 4 C  dxy             0.1       0.3       0.5       0.0       0.5       0.3
 5 C  s               7.7       3.7       0.7       0.0       6.8       3.6
 5 C  pz              0.0       0.0       0.0      15.3       0.0       0.0
 5 C  px              2.2       2.3       3.9       0.0       6.5       2.5
 5 C  py              4.0       0.3      14.6       0.0       2.4       4.9
 5 C  dz2             0.1       0.0       0.3       0.0       0.1       0.8
 5 C  dxz             0.0       0.0       0.0       0.2       0.0       0.0
 5 C  dyz             0.0       0.0       0.0       0.5       0.0       0.0
 5 C  dx2y2           0.1       0.5       0.6       0.0       0.2       0.0
 5 C  dxy             0.3       0.5       0.3       0.0       0.8       0.0
 6 O  s               9.7       1.4       0.0       0.0       0.4       0.3
 6 O  pz              0.0       0.0       0.0       1.3       0.0       0.0
 6 O  px              2.5       0.4       0.6       0.0       1.1       0.3
 6 O  py              2.8       0.2       3.8       0.0       1.0       0.7
 6 O  dz2             0.5       0.2       2.2       0.0       2.1       0.1
 6 O  dxz             0.0       0.0       0.0       0.3       0.0       0.0
 6 O  dyz             0.0       0.0       0.0       1.7       0.0       0.0
 6 O  dx2y2           0.2       0.1       0.6       0.0       0.0       0.3
 6 O  dxy             2.3       0.2       2.2       0.0       0.9       0.2
 7 Cl s               0.3       0.7       1.4       0.0       0.2       0.8
 7 Cl pz              0.0       0.0       0.0       0.5       0.0       0.0
 7 Cl px              0.4       1.5       0.2       0.0       0.1       0.6
 7 Cl py              0.3       0.5       0.2       0.0       0.3       0.8
 7 Cl dz2             0.6       0.1       2.5       0.0       0.5       0.0
 7 Cl dxz             0.0       0.0       0.0       4.1       0.0       0.0
 7 Cl dyz             0.0       0.0       0.0       0.1       0.0       0.0
 7 Cl dx2y2           3.1       1.3       1.4       0.0       0.1       0.2
 7 Cl dxy             0.0       0.0       0.0       0.0       2.3       1.7
 8 H  s               0.0       4.3       2.2       0.0       0.6       0.8
[...]
 6 O  s               0.9       0.7       0.4       0.3       0.0       6.1
 6 O  px              0.1       8.5       0.1       0.7       2.4       2.9
 6 O  py              0.3       1.3       1.8       0.1       0.2       4.1
 6 O  dz2             0.1       0.8       0.1       0.2       0.1       4.1
 6 O  dx2y2           0.4      33.1       0.1       0.7       8.8       0.5
 6 O  dxy             0.1       0.1       0.0       0.3       0.0       2.9
 7 Cl px              0.4       0.2       0.0       0.2       0.0       0.0
 8 H  s               1.2       0.0       1.4       1.6       0.1       2.9
 8 H  px              4.2       0.2       7.2       4.8       0.2       6.2
 8 H  py              0.0       0.0       0.0       0.4       0.1       0.0
 9 H  s               1.5       0.0       1.4       1.1       0.0       3.4
 9 H  px              2.0       0.0       2.6       0.5       0.0       2.4
 9 H  py              3.2       0.0       4.5       3.1       0.1       4.9
10 H  s               2.8       0.4       0.3       4.8       0.1       2.0
10 H  px              3.3       0.2       0.2       3.1       0.0       0.6
10 H  py              9.8       1.7       0.3      12.0       0.4       3.8
11 H  s               3.6       0.2       0.3       4.6       0.1       0.9
11 H  px              2.4       2.2       0.0       2.4       0.1       0.5
11 H  py             14.8       0.1       0.5      12.2       0.5       1.5
12 H  px              0.0       5.9       0.2       0.2       1.2       0.0
12 H  py              0.0       0.8       0.0       0.0       0.6       0.1

                    180       181       182       183       184       185   
                   4.18064   4.59959  21.35826  21.86836  21.95226  22.15931
                   0.00000   0.00000   0.00000   0.00000   0.00000   0.00000
                  --------  --------  --------  --------  --------  --------
 0 C  s               0.1       0.0      14.6      27.4       0.1      35.7
 0 C  px              0.7       0.0       0.0       0.0       0.0       0.0
 0 C  dz2             0.1       0.0       0.0       0.0       0.0       0.0
 0 C  dx2y2           3.4       0.2       0.0       0.0       0.0       0.0
 0 C  dxy             0.1       0.0       0.0       0.0       0.0       0.0
 1 C  s               0.1       0.0      14.2      14.4      18.9       1.1
 1 C  px              0.2       0.0       0.0       0.0       0.0       0.0
 1 C  py              0.4       0.0       0.0       0.0       0.0       0.0
 1 C  dx2y2           0.4       0.0       0.0       0.0       0.0       0.0
 1 C  dxy             2.1       0.1       0.0       0.0       0.0       0.0
 2 C  s               0.1       0.0      17.0       1.4      24.9      26.6
 2 C  py              0.3       0.0       0.0       0.0       0.0       0.0
 2 C  dx2y2           0.8       0.0       0.0       0.0       0.0       0.0
 2 C  dxy             1.2       0.1       0.0       0.0       0.0       0.0
 3 C  s               0.2       0.2      26.2      43.1       0.4      20.5
 3 C  px              0.2       0.1       0.0       0.0       0.0       0.0
 3 C  py              0.0       0.0       0.0       0.0       0.2       0.0
 3 C  dx2y2           0.8       0.1       0.0       0.0       0.0       0.0
 4 C  s               2.1       0.2      13.1       4.0      28.7       6.8
 4 C  px              1.7       0.8       0.0       0.0       0.1       0.0
 4 C  py              3.1       0.9       0.0       0.1       0.0       0.0
 4 C  dz2             1.6       0.1       0.0       0.0       0.0       0.0
 4 C  dx2y2           0.7       0.2       0.0       0.0       0.0       0.0
 4 C  dxy             7.6       2.4       0.0       0.0       0.0       0.0
 5 C  s               0.2       0.1      14.5       9.1      26.4       8.9
 5 C  px              0.1       0.1       0.0       0.1       0.0       0.0
 5 C  py              1.1       0.1       0.0       0.0       0.0       0.0
 5 C  dz2             0.2       0.0       0.0       0.0       0.0       0.0
 5 C  dx2y2           1.4       0.3       0.0       0.0       0.0       0.0
 5 C  dxy             2.2       0.3       0.0       0.0       0.0       0.0
 6 O  s              21.0       4.6       0.1       0.0       0.1       0.0
 6 O  px             10.3       1.9       0.0       0.0       0.0       0.0
 6 O  py              3.6      21.0       0.0       0.0       0.0       0.0
 6 O  dz2            13.4       3.7       0.0       0.0       0.0       0.0
 6 O  dx2y2           3.1       1.6       0.0       0.0       0.0       0.0
 6 O  dxy             3.0      32.1       0.0       0.0       0.0       0.0
 7 Cl px              0.1       0.0       0.0       0.0       0.0       0.0
 8 H  s               0.9       0.0       0.0       0.0       0.0       0.0
 8 H  px              1.4       0.0       0.0       0.0       0.0       0.0
 9 H  s               0.7       0.0       0.0       0.0       0.0       0.0
 9 H  px              0.4       0.0       0.0       0.0       0.0       0.0
 9 H  py              0.7       0.0       0.0       0.0       0.0       0.0
10 H  s               0.5       0.0       0.0       0.0       0.0       0.0
10 H  px              0.2       0.0       0.0       0.0       0.0       0.0
10 H  py              0.6       0.0       0.0       0.0       0.0       0.0
11 H  s               1.2       0.1       0.0       0.0       0.0       0.0
11 H  px              0.4       0.0       0.0       0.0       0.0       0.0
11 H  py              1.5       0.2       0.0       0.0       0.0       0.0
12 H  s               1.2      12.9       0.0       0.0       0.0       0.0
12 H  px              0.6       4.5       0.0       0.0       0.0       0.0
12 H  py              1.7      10.8       0.0       0.0       0.0       0.0

                    186       187       188       189   
                  22.17018  22.31697  25.37964  43.62502
                   0.00000   0.00000   0.00000   0.00000
                  --------  --------  --------  --------
 0 C  s               1.3      20.6       0.0       0.0
 1 C  s              30.6      20.5       0.0       0.0
 2 C  s              12.0      17.5       0.0       0.0
 3 C  s               1.0       8.3       0.0       0.0
 3 C  px              0.0       0.0       0.4       0.0
 4 C  s              32.6      14.3       0.1       0.0
 5 C  s              22.1      18.5       0.0       0.0
 6 O  s               0.0       0.0       0.0      99.9
 7 Cl s               0.0       0.0      99.2       0.0
 7 Cl px              0.0       0.0       0.1       0.0


                      *****************************
                      * MAYER POPULATION ANALYSIS *
                      *****************************

  NA   - Mulliken gross atomic population
  ZA   - Total nuclear charge
  QA   - Mulliken gross atomic charge
  VA   - Mayer's total valence
  BVA  - Mayer's bonded valence
  FA   - Mayer's free valence

  ATOM       NA         ZA         QA         VA         BVA        FA
  0 C      6.1542     6.0000    -0.1542     3.7451     3.7451    -0.0000
  1 C      6.2122     6.0000    -0.2122     3.7761     3.7761    -0.0000
  2 C      6.2040     6.0000    -0.2040     3.7506     3.7506     0.0000
  3 C      5.9875     6.0000     0.0125     3.7199     3.7199     0.0000
  4 C      5.6698     6.0000     0.3302     3.7265     3.7265    -0.0000
  5 C      6.3005     6.0000    -0.3005     3.6499     3.6499    -0.0000
  6 O      8.4406     8.0000    -0.4406     2.0059     2.0059     0.0000
  7 Cl    17.1659    17.0000    -0.1659     1.1098     1.1098    -0.0000
  8 H      0.8142     1.0000     0.1858     0.9557     0.9557    -0.0000
  9 H      0.8137     1.0000     0.1863     0.9562     0.9562    -0.0000
 10 H      0.8054     1.0000     0.1946     0.9535     0.9535     0.0000
 11 H      0.8085     1.0000     0.1915     0.9554     0.9554    -0.0000
 12 H      0.6236     1.0000     0.3764     0.8626     0.8626    -0.0000

  Mayer bond orders larger than 0.100000
B(  0-C ,  1-C ) :   1.3839 B(  0-C ,  5-C ) :   1.3625 B(  0-C ,  8-H ) :   0.9494 
B(  1-C ,  2-C ) :   1.3770 B(  1-C ,  9-H ) :   0.9529 B(  2-C ,  3-C ) :   1.3199 
B(  2-C , 10-H ) :   0.9434 B(  3-C ,  4-C ) :   1.3616 B(  3-C ,  7-Cl) :   0.9434 
B(  4-C ,  5-C ) :   1.2991 B(  4-C ,  6-O ) :   1.0146 B(  5-C , 11-H ) :   0.9536 
B(  6-O , 12-H ) :   0.8461 

-------
TIMINGS
-------

Total SCF time: 0 days 0 hours 0 min 28 sec 

Total time                  ....      28.593 sec
Sum of individual times     ....      26.536 sec  ( 92.8%)

SCF preparation             ....       0.397 sec  (  1.4%)
Fock matrix formation       ....      24.908 sec  ( 87.1%)
  Startup                   ....       0.059 sec  (  0.2% of F)
  Split-RI-J                ....       3.674 sec  ( 14.7% of F)
  XC integration            ....      16.763 sec  ( 67.3% of F)
    XC Preparation          ....       0.000 sec  (  0.0% of XC)
    Basis function eval.    ....       2.377 sec  ( 14.2% of XC)
    Density eval.           ....       4.266 sec  ( 25.4% of XC)
    XC-Functional eval.     ....       1.758 sec  ( 10.5% of XC)
    XC-Potential eval.      ....       5.056 sec  ( 30.2% of XC)
  CPCM terms                ....       3.811 sec  ( 15.3% of F)
Diagonalization             ....       0.000 sec  (  0.0%)
Density matrix formation    ....       0.268 sec  (  0.9%)
Total Energy calculation    ....       0.050 sec  (  0.2%)
Population analysis         ....       0.091 sec  (  0.3%)
Orbital Transformation      ....       0.055 sec  (  0.2%)
Orbital Orthonormalization  ....       0.000 sec  (  0.0%)
DIIS solution               ....       0.691 sec  (  2.4%)
  MO trafo                  ....       0.000 sec  (  0.0 % of DIIS)
  Orb grad                  ....       0.000 sec  (  0.0 % of DIIS)
  Energy W gradient         ....       0.000 sec  (  0.0 % of DIIS)
  DIIS error                ....       0.011 sec  (  1.6 % of DIIS)
  DIIS work                 ....       0.629 sec  ( 91.1 % of DIIS)
  Form Q                    ....       0.000 sec  (  0.0 % of DIIS)
  Form QpQm                 ....       0.000 sec  (  0.0 % of DIIS)
  Exp/Cayley                ....       0.000 sec  (  0.0 % of DIIS)
  Orb update                ....       0.000 sec  (  0.0 % of DIIS)
  Wake-sleep                ....       0.023 sec  (  3.3 % of DIIS)
SOSCF solution              ....       0.075 sec  (  0.3%)
  MO trafo                  ....       0.043 sec  ( 57.5 % of SOSCF)
  Orb grad                  ....       0.001 sec  (  1.6 % of SOSCF)
  Rot update                ....       0.012 sec  ( 16.1 % of SOSCF)
  Step                      ....       0.019 sec  ( 24.6 % of SOSCF)
Finished LeanSCF after  28.7 sec

Maximum memory used throughout the entire LEANSCF-calculation: 20.8 MB


-------------------------------------------------------------------------------
                          DFT DISPERSION CORRECTION                            
                                                                               
                                DFTD4 V3.4.0                                   
-------------------------------------------------------------------------------
The R2SCAN3C composite method is recognized
Using three-body term ABC
Active option DFTDOPT                   ...         5   

-------------------------   ----------------
Dispersion correction           -0.004532020
-------------------------   ----------------

------------------   -----------------
gCP correction             0.005246224
------------------   -----------------

-------------------------   --------------------
FINAL SINGLE POINT ENERGY      -766.988689893637
-------------------------   --------------------


------------------------------------------------------------------------------
                              ORCA PROPERTY CALCULATIONS
------------------------------------------------------------------------------

GBWName                                 ... sp_solv.gbw
Number of atoms                         ...     13
Number of basis functions               ...    190
Max core memory                         ...   1024 MB

Electric properties:
Dipole moment                           ... YES
Quadrupole moment                       ...  NO
Static polarizability (Dipole/Dipole)   ...  NO
Static polarizability (Dipole/Quad.)    ...  NO
Static polarizability (Quad./Quad.)     ...  NO
Static polarizability (Velocity)        ...  NO

Atomic electric properties:
Dipole moment                           ...  NO
Quadrupole moment                       ...  NO
Static polarizability                   ...  NO

Choice of electric origin               ... Center of mass
Position of electric origin             ...    -0.000033    -0.000017    -0.000000

General magnetic properties:
Magnetizability                         ...  NO

EPR properties:
g-Tensor (aka g-matrix)                 ...  NO
Zero-Field splitting spin-orbit         ...  NO
Zero-field splitting spin-spin          ...  NO
Hyperfine couplings                     ...  NO (   0 nuclei)
Quadrupole couplings                    ...  NO (   0 nuclei)
Contact density                         ...  NO (   0 nuclei)

NMR properties:
Chemical shifts                         ...  NO (   0 nuclei)
Spin-rotation constants                 ...  NO (   0 nuclei)
Spin-spin couplings                     ...  NO (   0 nuclei,    0 pairs)

Choice of magnetic origin               ... GIAO
Position of magnetic origin             ...     0.000000     0.000000     0.000000

Properties with geometric perturbations:
SCF Hessian                             ...  NO
IR spectrum                             ...  NO
VCD spectrum                            ...  NO
X-ray spectroscopy properties:
SCF XES/XAS/RIXS spectra                ...  NO


-------------
DIPOLE MOMENT
-------------

Method             : SCF
Type of density    : Electron Density
Multiplicity       :   1
Irrep              :   0
Energy             :  -766.9894040970164042 Eh
Relativity type    : 
Basis              : AO
                                X                 Y                 Z
Electronic contribution:      8.745894516      -0.157471873      -0.000099979
Nuclear contribution   :    -10.210667117       0.812722144       0.000066200
                        -----------------------------------------
Total Dipole Moment    :     -1.464772601       0.655250271      -0.000033780
                        -----------------------------------------
Magnitude (a.u.)       :      1.604653137
Magnitude (Debye)      :      4.078704135



--------------------
Rotational spectrum 
--------------------
 
Rotational constants in cm-1:             0.099444             0.051664             0.034000 
Rotational constants in MHz :          2981.260011          1548.836635          1019.290557 

Dipole components along the rotational axes: 
x,y,z [a.u.] :     1.457360     0.671576    -0.000058 
x,y,z [Debye]:     3.704314     1.707011    -0.000148 

 

Dipole moment calculation done in   0.0 sec 

Maximum memory used throughout the entire PROP-calculation: 11.6 MB

--------------------------------
SUGGESTED CITATIONS FOR THIS RUN
--------------------------------

Below you find a list of papers that are relevant to this ORCA run
We neither can nor want to force you to cite these papers, but we appreciate if you do
You receive ORCA, which is the product of decades of hard work by many enthusiastic individuals, for free
The only thing we kindly ask in return is that you cite our papers,
We deeply appreciate it, if you show your appreciation for ORCA by not just citing the generic ORCA reference.

Please note that relegating all ORCA citations to the supporting information does *not* help us.
SI sections are not indexed - citations you put there will not count into any citation statistics
But we need these citations in order to attract the funding resources that allow us to do what we are doing

Therefore, if you are a happy ORCA user, please consider citing a few of the papers listed below in the main body of your paper

In addition to the list printed below, the program has created the file sp_solv.bibtex that contains the list in bibtex format
You can import this file easily into all common literature databanks and citation aid programs


List of essential papers. We consider these as the minimum necessary citations

  1. Neese,F.
     Software update: the ORCA program system, version 5.0
     WIRES Comput. Molec. Sci., 2022 12(1)e1606
     doi.org/10.1002/wcms.1606
  2. Grimme,S.; Hansen,A.; Ehlert,S.; Mewes,J.
     r2SCAN-3c: A 'Swiss army knife' composite electronic-structure method
     J. Chem. Phys., 2021 154 064103
     doi.org/10.1063/5.0040021

List of papers to cite with high priority. The work reported in these papers was absolutely
necessary for this run to complete.
Our perspective: the developers of density functionals and basis sets usually get cited in chemistry papers
Good! But without the algorithms to do something with them, the functionals or basis sets would not do anything.
Hence, in our opinion, the algorithm design and method developments papers are equally worthy of getting cited

  1. Neese,F.
     An improvement of the resolution of the identity approximation for the formation of the Coulomb matrix
     J. Comp. Chem., 2003 24(14)1740-1747
     doi.org/10.1002/jcc.10318
  2. Garcia-Rates,M.; Neese,F.
     Effect of the Solute Cavity on the Solvation Energy and its Derivatives within the Framework of the Gaussian Charge Scheme
     J. Comput. Chem., 2020 41 922-939
     doi.org/10.1002/jcc.26139
  3. Neese,F.
     The SHARK Integral Generation and Digestion System
     J. Comp. Chem., 2022  1-16
     doi.org/10.1002/jcc.26942
  4. Lehtola,S.; Steigemann,C.; Oliveira,M.; Marques,M.
     Recent developments in Libxc - A comprehensive library of functionals for density functional theory
     Software X, 2018 7 
     doi.org/10.1016/j.softx.2017.11.002
  5. Caldeweyher,E.; Bannwarth,C.; Grimme,S.
     Extension of the D3 dispersion coefficient model
     J. Chem. Phys., 2017 147 034112-XXXX
     doi.org/10.1063/1.4993215
  6. Caldeweyher,E.; Ehlert,S.; Hansen,A.; Neugebauer,H.; Spicher,S.; Bannwarth,C.; Grimme,S.
     A generally applicable atomic-charge dependent London dispersion correction
     J. Chem. Phys., 2019 150 154122-XXXX
     doi.org/10.1063/1.5090222
  7. Caldeweyher,E.; Mewes,J.; Ehlert,S.; Grimme,S.
     Extension and evaluation of the D4 London-dispersion model for periodic systems
     Phys. Chem. Chem. Phys., 2020 22(16)8499-8512
     doi.org/10.1039/D0CP00502A

List of suggested additional citations. These are papers that are important in the 'surrounding' of 
of this run, or papers that preceded the highly important papers. If you like your results we are grateful for a citation.

  1. Neese,F.
     The ORCA program system
     WIRES Comput. Molec. Sci., 2012 2(1)73-78
     doi.org/10.1002/wcms.81
  2. Neese,F.
     Software update: the ORCA program system, version 4.0
     WIRES Comput. Molec. Sci., 2018 8(1)1-6
     doi.org/10.1002/wcms.1327
  3. Neese,F.; Wennmohs,F.; Becker,U.; Riplinger,C.
     The ORCA quantum chemistry program package
     J. Chem. Phys., 2020 152 Art. No. L224108
     doi.org/10.1063/5.0004608

List of optional additional citations

  1. Neese,F.
     Approximate second-order SCF convergence for spin unrestricted wavefunctions
     Chem. Phys. Lett., 2000 325(1-3)93-98
     doi.org/10.1016/s0009-2614(00)00662-x

Timings for individual modules:

Sum of individual times          ...       30.412 sec (=   0.507 min)
Startup calculation              ...        1.201 sec (=   0.020 min)   3.9 %
SCF iterations                   ...       29.100 sec (=   0.485 min)  95.7 %
Property calculations            ...        0.111 sec (=   0.002 min)   0.4 %
                             ****ORCA TERMINATED NORMALLY****
TOTAL RUN TIME: 0 days 0 hours 0 minutes 31 seconds 168 msec
