
                                 *****************
                                 * O   R   C   A *
                                 *****************

                                            #,                                       
                                            ###                                      
                                            ####                                     
                                            #####                                    
                                            ######                                   
                                           ########,                                 
                                     ,,################,,,,,                         
                               ,,#################################,,                 
                          ,,##########################################,,             
                       ,#########################################, ''#####,          
                    ,#############################################,,   '####,        
                  ,##################################################,,,,####,       
                ,###########''''           ''''###############################       
              ,#####''   ,,,,##########,,,,          '''####'''          '####       
            ,##' ,,,,###########################,,,                        '##       
           ' ,,###''''                  '''############,,,                           
         ,,##''                                '''############,,,,        ,,,,,,###''
      ,#''                                            '''#######################'''  
     '                                                          ''''####''''         
             ,#######,   #######,   ,#######,      ##                                
            ,#'     '#,  ##    ##  ,#'     '#,    #''#        ,####,   ,####,        
            ##       ##  ##   ,#'  ##            #'  '#       #'       #'  '#        
            ##       ##  #######   ##           ,######,      #####,   #    #        
            '#,     ,#'  ##    ##  '#,     ,#' ,#      #,     #,   #   #,  ,#        
             '#######'   ##     ##  '#######'  #'      '#     '####' # '####'        



                #########################################################
                #                        -***-                          #
                #          Department of theory and spectroscopy        #
                #                                                       #
                #                      Frank Neese                      #
                #                                                       #
                #     Directorship, Architecture, Infrastructure        #
                #                    SHARK, DRIVERS                     #
                #        Core code/Algorithms in most modules           #
                #                                                       #
                #        Max Planck Institute fuer Kohlenforschung      #
                #                Kaiser Wilhelm Platz 1                 #
                #                 D-45470 Muelheim/Ruhr                 #
                #                      Germany                          #
                #                                                       #
                #                  All rights reserved                  #
                #                        -***-                          #
                #########################################################


                         Program Version 6.0.0  -   RELEASE  -


 With contributions from (in alphabetic order):
   Daniel Aravena         : Magnetic Suceptibility
   Michael Atanasov       : Ab Initio Ligand Field Theory (pilot matlab implementation)
   Alexander A. Auer      : GIAO ZORA, VPT2 properties, NMR spectrum
   Ute Becker             : All parallelization in ORCA, NUMFREQ, NUMCALC
   Giovanni Bistoni       : ED, misc. LED, open-shell LED, HFLD
   Martin Brehm           : Molecular dynamics
   Dmytro Bykov           : pre 5.0 version of the SCF Hessian
   Marcos Casanova-Páez   : Triplet and SCS-CIS(D). UHF-(DLPNO)-IP/EA/STEOM-CCSD. UHF-CVS-IP/STEOM-CCSD
   Vijay G. Chilkuri      : MRCI spin determinant printing, contributions to CSF-ICE
   Pauline Colinet        : FMM embedding
   Dipayan Datta          : RHF DLPNO-CCSD density
   Achintya Kumar Dutta   : EOM-CC, STEOM-CC
   Nicolas Foglia         : Exact transition moments, OPA infrastructure, MCD improvements
   Dmitry Ganyushin       : Spin-Orbit,Spin-Spin,Magnetic field MRCI
   Miquel Garcia          : C-PCM and meta-GGA Hessian, CCSD/C-PCM, Gaussian charge scheme
   Tiago L. C. Gouveia    : GS-ROHF, GS-ROCIS
   Yang Guo               : DLPNO-NEVPT2, F12-NEVPT2, CIM, IAO-localization
   Andreas Hansen         : Spin unrestricted coupled pair/coupled cluster methods
   Ingolf Harden          : AUTO-CI MPn and infrastructure 
   Benjamin Helmich-Paris : MC-RPA, TRAH-(SCF,CASSCF), AVAS, COSX integrals, SCF dyn. polar.
   Lee Huntington         : MR-EOM, pCC
   Robert Izsak           : Overlap fitted RIJCOSX, COSX-SCS-MP3, EOM
   Riya Kayal             : Wick's Theorem for AUTO-CI, AUTO-CI UHF-CCSDT
   Emily Kempfer          : AUTO-CI, RHF CISDT and CCSDT
   Christian Kollmar      : KDIIS, OOCD, Brueckner-CCSD(T), CCSD density, CASPT2, CASPT2-K, improved NEVPT2
   Axel Koslowski         : Symmetry handling
   Simone Kossmann        : Meta GGA functionals, TD-DFT gradient, OOMP2, (MP2 Hessian; deprecated post 5.0)
   Lucas Lang             : DCDCAS
   Marvin Lechner         : AUTO-CI (C++ implementation), FIC-MRCC
   Spencer Leger          : CASSCF response
   Dagmar Lenk            : GEPOL surface, SMD, ORCA-2-JSON
   Dimitrios Liakos       : Extrapolation schemes; Compound Job, initial MDCI parallelization
   Dimitrios Manganas     : Further ROCIS development; embedding schemes. LFT, Crystal Embedding
   Dimitrios Pantazis     : SARC Basis sets
   Anastasios Papadopoulos: AUTO-CI, single reference methods and gradients
   Taras Petrenko         : pre 6.0 DFT Hessian and TD-DFT gradient, (ASA, deprecated), ECA, 1-Electron XAS/XES, NRVS
   Peter Pinski           : DLPNO-MP2, DLPNO-MP2 Gradient
   Christoph Reimann      : Effective Core Potentials
   Marius Retegan         : Local ZFS, SOC
   Christoph Riplinger    : Optimizer, TS searches, QM/MM, DLPNO-CCSD(T), (RO)-DLPNO pert. Triples
   Michael Roemelt        : Original ROCIS implementation
   Masaaki Saitow         : Open-shell DLPNO-CCSD energy and density
   Barbara Sandhoefer     : DKH picture change effects
   Kantharuban Sivalingam : CASSCF convergence/infrastructure, NEVPT2 and variants, FIC-MRCI
   Bernardo de Souza      : ESD, SOC TD-DFT
   Georgi Stoychev        : AutoAux, RI-MP2 NMR, DLPNO-MP2 response, X2C
   Van Anh Tran           : RI-MP2 g-tensors
   Willem Van den Heuvel  : Paramagnetic NMR
   Zikuan Wang            : NOTCH, Electric field optimization 
   Frank Wennmohs         : Technical directorship and infrastructure
   Hang Xu                : AUTO-CI-Response properties 


 We gratefully acknowledge several colleagues who have allowed us to
 interface, adapt or use parts of their codes:
   Stefan Grimme, W. Hujo, H. Kruse, P. Pracht,  : VdW corrections, initial TS optimization,
                  C. Bannwarth, S. Ehlert,         DFT functionals, gCP, sTDA/sTD-DF
                  L. Wittmann, M. Mueller
   Ed Valeev, F. Pavosevic, A. Kumar             : LibInt (2-el integral package), F12 methods
   Garnet Chan, S. Sharma, J. Yang, R. Olivares  : DMRG
   Ulf Ekstrom                                   : XCFun DFT Library
   Mihaly Kallay                                 : mrcc  (arbitrary order and MRCC methods)
   Frank Weinhold                                : gennbo (NPA and NBO analysis)
   Simon Mueller                                 : openCOSMO-RS
   Christopher J. Cramer and Donald G. Truhlar   : smd solvation model
   Lars Goerigk                                  : TD-DFT with DH, B97 family of functionals
   V. Asgeirsson, H. Jonsson                     : NEB implementation
   FAccTs GmbH                                   : IRC, NEB, NEB-TS, DLPNO-Multilevel, CI-OPT
                                                   MM, QMMM, 2- and 3-layer-ONIOM, Crystal-QMMM,
                                                   LR-CPCM, SF, NACMEs, symmetry and pop. for TD-DFT,
                                                   nearIR, NL-DFT gradient (VV10), updates on ESD,
                                                   ML-optimized integration grids, MBIS, APM,
                                                   GOAT, DOCKER, SOLVATOR, interface openCOSMO-RS
   S Lehtola, MJT Oliveira, MAL Marques          : LibXC Library
   Liviu Ungur et al                             : ANISO software


 Your calculation uses the libint2 library for the computation of 2-el integrals
 For citations please refer to: http://libint.valeyev.net

 Your ORCA version has been built with support for libXC version: 6.2.2
 For citations please refer to: https://libxc.gitlab.io

 This ORCA versions uses:
   CBLAS   interface :  Fast vector & matrix operations
   LAPACKE interface :  Fast linear algebra routines
   SCALAPACK package :  Parallel linear algebra routines
   Shared memory     :  Shared parallel matrices
   BLAS/LAPACK       :  OpenBLAS 0.3.27  USE64BITINT DYNAMIC_ARCH NO_AFFINITY SkylakeX SINGLE_THREADED
        Core in use  :  SkylakeX
   Copyright (c) 2011-2014, The OpenBLAS Project


Your calculation utilizes the geometrical counterpoise correction gCP
Please cite in your paper:
H.Kruse, S. Grimme J.Chem.Phys., 136, (2012), 154101 
   

Your calculation utilizes the DFT-NL dispersion correction.
Cite in your paper:
Vydrov, O. A.; Van Voorhis, T. J. Chem. Phys. 2010, 133, 244103
Hujo, W.; Grimme, S. J. Chem. Theory Comput. 2011, 7, 3866 
   

================================================================================

----- Orbital basis set information -----
Your calculation utilizes the basis: def2-TZVP
   F. Weigend and R. Ahlrichs, Phys. Chem. Chem. Phys. 7, 3297 (2005).

----- AuxJ basis set information -----
Your calculation utilizes the auxiliary basis: def2/J
   F. Weigend, Phys. Chem. Chem. Phys. 8, 1057 (2006).

================================================================================
                                        WARNINGS
                       Please study these warnings very carefully!
================================================================================


================================================================================
                                       INPUT FILE
================================================================================
NAME = sp_gas.inp
|  1> ! wb97x-v def2-tzvp def2/J RIJCOSX DEFGRID2 scfconv7 GCP(DFT/TZ) printgap
|  2> %output
|  3>     printlevel normal
|  4> end
|  5> * xyz 0 1
|  6> C -2.419097036260352 -0.07755586056133543 -0.00018965245913778737
|  7> C -1.846780342135505 -1.3483991260846726 -0.00015743779292246411
|  8> C -0.46211628905966473 -1.481682740494972 -6.521983663645468e-05
|  9> C 0.3318899480409741 -0.34266451527478275 -1.4769045235715475e-05
| 10> C -0.22871177190713776 0.9388366973645476 -5.621366837179319e-05
| 11> C -1.6189127881229013 1.0572308803290529 -0.00013927234042776287
| 12> O 0.5110639384125414 2.0874510404839146 -2.87478847956544e-05
| 13> Cl 2.0868826196934522 -0.49815551143347847 9.946929984600819e-05
| 14> H -3.498243147053145 0.033811407616143416 -0.0002616074640711382
| 15> H -2.469588594129455 -2.2359939076813733 -0.00020730371093593818
| 16> H 0.0022690939476222483 -2.4616027579226745 -4.0707367741641936e-05
| 17> H -2.052306630037507 2.052001366569013 -0.00017474500792541924
| 18> H 1.4563619906523366 1.8711971960076401 7.8279209673392e-06
| 19> *
| 20> 
| 21>                          ****END OF INPUT****
================================================================================

                       ****************************
                       * Single Point Calculation *
                       ****************************

---------------------------------
CARTESIAN COORDINATES (ANGSTROEM)
---------------------------------
  C     -2.419097   -0.077556   -0.000190
  C     -1.846780   -1.348399   -0.000157
  C     -0.462116   -1.481683   -0.000065
  C      0.331890   -0.342665   -0.000015
  C     -0.228712    0.938837   -0.000056
  C     -1.618913    1.057231   -0.000139
  O      0.511064    2.087451   -0.000029
  Cl     2.086883   -0.498156    0.000099
  H     -3.498243    0.033811   -0.000262
  H     -2.469589   -2.235994   -0.000207
  H      0.002269   -2.461603   -0.000041
  H     -2.052307    2.052001   -0.000175
  H      1.456362    1.871197    0.000008

----------------------------
CARTESIAN COORDINATES (A.U.)
----------------------------
  NO LB      ZA    FRAG     MASS         X           Y           Z
   0 C     6.0000    0    12.011   -4.571431   -0.146559   -0.000358
   1 C     6.0000    0    12.011   -3.489909   -2.548105   -0.000298
   2 C     6.0000    0    12.011   -0.873273   -2.799975   -0.000123
   3 C     6.0000    0    12.011    0.627181   -0.647542   -0.000028
   4 C     6.0000    0    12.011   -0.432203    1.774144   -0.000106
   5 C     6.0000    0    12.011   -3.059302    1.997877   -0.000263
   6 O     8.0000    0    15.999    0.965771    3.944711   -0.000054
   7 Cl   17.0000    0    35.453    3.943637   -0.941377    0.000188
   8 H     1.0000    0     1.008   -6.610721    0.063894   -0.000494
   9 H     1.0000    0     1.008   -4.666846   -4.225416   -0.000392
  10 H     1.0000    0     1.008    0.004288   -4.651755   -0.000077
  11 H     1.0000    0     1.008   -3.878297    3.877721   -0.000330
  12 H     1.0000    0     1.008    2.752125    3.536050    0.000015

--------------------------------
INTERNAL COORDINATES (ANGSTROEM)
--------------------------------
 C      0   0   0     0.000000000000     0.00000000     0.00000000
 C      1   0   0     1.393767916454     0.00000000     0.00000000
 C      2   1   0     1.391064006527   119.74231683     0.00000000
 C      3   2   1     1.388455409613   119.38205808     0.00000000
 C      4   3   2     1.398756464908   121.49244953     0.00000000
 C      1   2   3     1.388537281029   120.56664504     0.00000000
 O      5   4   3     1.366229487148   123.58875311   180.00097138
 Cl     4   3   2     1.761867401506   119.81709778   180.00009807
 H      1   2   3     1.084877413369   120.13617006   179.99999266
 H      2   1   3     1.084303747829   120.69926056   180.00023277
 H      3   2   1     1.084387857322   120.85451552   180.00011545
 H      6   1   2     1.085079971137   121.26936287   179.99931198
 H      7   5   4     0.969718585032   109.89823658     0.00000000

---------------------------
INTERNAL COORDINATES (A.U.)
---------------------------
 C      0   0   0     0.000000000000     0.00000000     0.00000000
 C      1   0   0     2.633839656345     0.00000000     0.00000000
 C      2   1   0     2.628730007091   119.74231683     0.00000000
 C      3   2   1     2.623800473330   119.38205808     0.00000000
 C      4   3   2     2.643266646728   121.49244953     0.00000000
 C      1   2   3     2.623955187884   120.56664504     0.00000000
 O      5   4   3     2.581799566798   123.58875311   180.00097138
 Cl     4   3   2     3.329446873130   119.81709778   180.00009807
 H      1   2   3     2.050121200144   120.13617006   179.99999266
 H      2   1   3     2.049037129381   120.69926056   180.00023277
 H      3   2   1     2.049196073288   120.85451552   180.00011545
 H      6   1   2     2.050503978851   121.26936287   179.99931198
 H      7   5   4     1.832502552685   109.89823658     0.00000000

---------------------
BASIS SET INFORMATION
---------------------
There are 4 groups of distinct atoms

 Group   1 Type C   : 11s6p2d1f contracted to 5s3p2d1f pattern {62111/411/11/1}
 Group   2 Type O   : 11s6p2d1f contracted to 5s3p2d1f pattern {62111/411/11/1}
 Group   3 Type Cl  : 14s9p3d1f contracted to 5s5p2d1f pattern {73211/51111/21/1}
 Group   4 Type H   : 5s1p contracted to 3s1p pattern {311/1}

Atom   0C    basis set group =>   1
Atom   1C    basis set group =>   1
Atom   2C    basis set group =>   1
Atom   3C    basis set group =>   1
Atom   4C    basis set group =>   1
Atom   5C    basis set group =>   1
Atom   6O    basis set group =>   2
Atom   7Cl   basis set group =>   3
Atom   8H    basis set group =>   4
Atom   9H    basis set group =>   4
Atom  10H    basis set group =>   4
Atom  11H    basis set group =>   4
Atom  12H    basis set group =>   4
---------------------------------
AUXILIARY/J BASIS SET INFORMATION
---------------------------------
There are 4 groups of distinct atoms

 Group   1 Type C   : 12s5p4d2f1g contracted to 6s4p3d1f1g pattern {711111/2111/211/2/1}
 Group   2 Type O   : 12s5p4d2f1g contracted to 6s4p3d1f1g pattern {711111/2111/211/2/1}
 Group   3 Type Cl  : 14s5p5d2f1g contracted to 8s4p3d1f1g pattern {71111111/2111/311/2/1}
 Group   4 Type H   : 5s2p1d contracted to 3s1p1d pattern {311/2/1}

Atom   0C    basis set group =>   1
Atom   1C    basis set group =>   1
Atom   2C    basis set group =>   1
Atom   3C    basis set group =>   1
Atom   4C    basis set group =>   1
Atom   5C    basis set group =>   1
Atom   6O    basis set group =>   2
Atom   7Cl   basis set group =>   3
Atom   8H    basis set group =>   4
Atom   9H    basis set group =>   4
Atom  10H    basis set group =>   4
Atom  11H    basis set group =>   4
Atom  12H    basis set group =>   4

Checking for AutoStart:
The File: sp_gas.gbw exists
Trying to determine its content:
     ... Fine, the file contains calculation information
     ... Fine, the calculation information was read
     ... Fine, the file contains a basis set
     ... Fine, the basis set was read
     ... Fine, the file contains a geometry
     ... Fine, the geometry was read
     ... Fine, the file contains a set of orbitals
     ... Fine, the orbitals can be read
     => possible old guess file was deleted
     => GBW file was renamed to GES file
     => GES file is set as startup file
     => Guess is set to MORead
     ... now leaving AutoStart

------------------------------------------------------------------------------
                             ORCA STARTUP CALCULATIONS
                           -- RI-GTO INTEGRALS CHOSEN --
------------------------------------------------------------------------------
------------------------------------------------------------------------------
                   ___                                                        
                  /   \      - P O W E R E D   B Y -                         
                 /     \                                                     
                 |  |  |   _    _      __       _____    __    __             
                 |  |  |  | |  | |    /  \     |  _  \  |  |  /  |          
                  \  \/   | |  | |   /    \    | | | |  |  | /  /          
                 / \  \   | |__| |  /  /\  \   | |_| |  |  |/  /          
                |  |  |   |  __  | /  /__\  \  |    /   |      \           
                |  |  |   | |  | | |   __   |  |    \   |  |\   \          
                \     /   | |  | | |  |  |  |  | |\  \  |  | \   \       
                 \___/    |_|  |_| |__|  |__|  |_| \__\ |__|  \__/        
                                                                              
                      - O R C A' S   B I G   F R I E N D -                    
                                      &                                       
                       - I N T E G R A L  F E E D E R -                       
                                                                              
 v1 FN, 2020, v2 2021, v3 2022-2024                                           
------------------------------------------------------------------------------


----------------------
SHARK INTEGRAL PACKAGE
----------------------

Number of atoms                             ...     13
Number of basis functions                   ...    284
Number of shells                            ...    110
Maximum angular momentum                    ...      3
Integral batch strategy                     ... SHARK/LIBINT Hybrid
RI-J (if used) integral strategy            ... SPLIT-RIJ (Revised 2003 algorithm where possible)
Printlevel                                  ...      1
Contraction scheme used                     ... SEGMENTED contraction
Prescreening option                         ... SCHWARTZ
   Thresh                                   ... 3.000e-11
   Tcut                                     ... 1.000e-12
   Tpresel                                  ... 1.000e-12 
Coulomb Range Separation                    ... NOT USED
Exchange Range Separation                   ... Long Range
   Mu parameter                             ... 3.000e-01
   Scaling (regular/separated)              ... 1.670e-01 8.330e-01
Multipole approximations                    ... NOT USED
Finite Nucleus Model                        ... NOT USED
CABS basis                                  ... NOT available
Auxiliary Coulomb fitting basis             ... AVAILABLE
   # of basis functions in Aux-J            ...    449
   # of shells in Aux-J                     ...    147
   Maximum angular momentum in Aux-J        ...      4
Auxiliary J/K fitting basis                 ... NOT available
Auxiliary Correlation fitting basis         ... NOT available
Auxiliary 'external' fitting basis          ... NOT available

Checking pre-screening integrals            ... done (  0.0 sec) Dimension = 110
Check shell pair data                       ... done (  0.0 sec)
Shell pair information
Shell pair cut-off parameter TPreSel        ...   1.0e-12
Total number of shell pairs                 ...      6105
Shell pairs after pre-screening             ...      5632
Total number of primitive shell pairs       ...     19708
Primitive shell pairs kept                  ...     13559
          la=0 lb=0:   1342 shell pairs
          la=1 lb=0:   1570 shell pairs
          la=1 lb=1:    470 shell pairs
          la=2 lb=0:    835 shell pairs
          la=2 lb=1:    476 shell pairs
          la=2 lb=2:    132 shell pairs
          la=3 lb=0:    407 shell pairs
          la=3 lb=1:    237 shell pairs
          la=3 lb=2:    127 shell pairs
          la=3 lb=3:     36 shell pairs

Calculating one electron integrals          ... done (  0.0 sec)
Calculating RI/J V-Matrix + Cholesky decomp.... done (  0.1 sec)
Calculating Nuclear repulsion               ... done (  0.0 sec) ENN=    405.109347692733 Eh

Diagonalization of the overlap matrix:
Smallest eigenvalue                        ... 1.055e-05
Time for diagonalization                   ...    0.008 sec
Threshold for overlap eigenvalues          ... 1.000e-07
Number of eigenvalues below threshold      ... 0
Time for construction of square roots      ...    0.017 sec
Total time needed                          ...    0.034 sec

-------------------
DFT GRID GENERATION
-------------------

General Integration Accuracy     IntAcc      ... 4.388
Radial Grid Type                 RadialGrid  ... OptM3 with GC (2021)
Angular Grid (max. ang.)         AngularGrid ... 4 (Lebedev-302)
Angular grid pruning method      GridPruning ... 4 (adaptive)
Weight generation scheme         WeightScheme... mBecke (2022)
Basis function cutoff            BFCut       ... 1.0000e-11
Integration weight cutoff        WCut        ... 1.0000e-14
Partially contracted basis set               ... off
Rotationally invariant grid construction     ... off
Angular grids for H and He will be reduced by one unit

Total number of grid points                  ...    65583
Total number of batches                      ...     1031
Average number of points per batch           ...       63
Average number of grid points per atom       ...     5045

--------------------
COSX GRID GENERATION
--------------------

GRIDX 1
-------
General Integration Accuracy     IntAcc      ... 3.816
Radial Grid Type                 RadialGrid  ... OptM3 with GC (2021)
Angular Grid (max. ang.)         AngularGrid ... 1 (Lebedev-50)
Angular grid pruning method      GridPruning ... 4 (adaptive)
Weight generation scheme         WeightScheme... mBecke (2022)
Basis function cutoff            BFCut       ... 1.0000e-11
Integration weight cutoff        WCut        ... 1.0000e-14
Partially contracted basis set               ... on
Rotationally invariant grid construction     ... off
Angular grids for H and He will be reduced by one unit

Total number of grid points                  ...     9412
Total number of batches                      ...       78
Average number of points per batch           ...      120
Average number of grid points per atom       ...      724
UseSFitting                                  ... on

GRIDX 2
-------
General Integration Accuracy     IntAcc      ... 4.020
Radial Grid Type                 RadialGrid  ... OptM3 with GC (2021)
Angular Grid (max. ang.)         AngularGrid ... 2 (Lebedev-110)
Angular grid pruning method      GridPruning ... 4 (adaptive)
Weight generation scheme         WeightScheme... mBecke (2022)
Basis function cutoff            BFCut       ... 1.0000e-11
Integration weight cutoff        WCut        ... 1.0000e-14
Partially contracted basis set               ... on
Rotationally invariant grid construction     ... off
Angular grids for H and He will be reduced by one unit

Total number of grid points                  ...    18442
Total number of batches                      ...      150
Average number of points per batch           ...      122
Average number of grid points per atom       ...     1419
UseSFitting                                  ... on

GRIDX 3
-------
General Integration Accuracy     IntAcc      ... 4.338
Radial Grid Type                 RadialGrid  ... OptM3 with GC (2021)
Angular Grid (max. ang.)         AngularGrid ... 3 (Lebedev-194)
Angular grid pruning method      GridPruning ... 4 (adaptive)
Weight generation scheme         WeightScheme... mBecke (2022)
Basis function cutoff            BFCut       ... 1.0000e-11
Integration weight cutoff        WCut        ... 1.0000e-14
Partially contracted basis set               ... on
Rotationally invariant grid construction     ... off
Angular grids for H and He will be reduced by one unit

Total number of grid points                  ...    41214
Total number of batches                      ...      330
Average number of points per batch           ...      124
Average number of grid points per atom       ...     3170
UseSFitting                                  ... on
Initializing property integral containers    ... done (  0.0 sec)

SHARK setup successfully completed in   2.4 seconds

Maximum memory used throughout the entire STARTUP-calculation: 40.6 MB
-------------------------------------------------------------------------------
                                 ORCA GUESS
                   Start orbitals & Density for SCF / CASSCF
-------------------------------------------------------------------------------

------------
SCF SETTINGS
------------
Hamiltonian:
 Density Functional     Method          .... DFT(GTOs)
 Exchange Functional    Exchange        .... WB97X-V
 Correlation Functional Correlation     .... WB97X-V
 Gradients option       PostSCFGGA      .... off
 Hybrid DFT is turned on
   Fraction HF Exchange ScalHFX         ....  0.167000
   Scaling of DF-GGA-X  ScalDFX         ....  0.000000
   Scaling of DF-GGA-C  ScalDFC         ....  1.000000
   Scaling of DF-LDA-C  ScalLDAC        ....  1.000000
   Perturbative correction              ....  0.000000
 Long-range corrected/Screened/Range-Separated Hybrid DFT is turned on
   Amount of maximum screened exact exchange              ....  0.833000
   Range separation parameter mu (erf(mu*r12)/r12)        ....  0.300000
   NL short-range parameter             ....  6.000000
   NL long-range parameter              ....  0.010000
 RI-approximation to the Coulomb term is turned on
   Number of AuxJ basis functions       .... 449
   RIJ-COSX (HFX calculated with COS-X)).... on


General Settings:
 Integral files         IntName         .... sp_gas
 Hartree-Fock type      HFTyp           .... RHF
 Total Charge           Charge          ....    0
 Multiplicity           Mult            ....    1
 Number of Electrons    NEL             ....   66
 Basis Dimension        Dim             ....  284
 Nuclear Repulsion      ENuc            ....    405.1093476927 Eh

Convergence Acceleration:
 AO-DIIS                CNVDIIS         .... on
   Start iteration      DIISMaxIt       ....    12
   Startup error        DIISStart       ....  0.200000
   # of expansion vecs  DIISMaxEq       ....     5
   Bias factor          DIISBfac        ....   1.050
   Max. coefficient     DIISMaxC        ....  10.000
 MO-DIIS                CNVKDIIS        .... off
 Trust-Rad. Augm. Hess. CNVTRAH         .... auto
   Auto Start mean grad. ratio tolernc. ....  1.125000
   Auto Start start iteration           ....     1
   Auto Start num. interpolation iter.  ....    10
   Max. Number of Micro iterations      ....    24
   Max. Number of Macro iterations      .... Maxiter - #DIIS iter
   Number of Davidson start vectors     ....     2
   Converg. threshold    (grad. norm)   ....   1.000e-04
   Grad. Scal. Fac. for Micro threshold ....   0.100
   Minimum threshold for Micro iter.    ....   1.000e-02
   NR start threshold (gradient norm)   ....   1.000e-04
   Initial trust radius                 ....   0.400
   Minimum AH scaling param. (alpha)    ....   1.000
   Maximum AH scaling param. (alpha)    .... 1000.000
   Quad. conv. algorithm                .... NR
   White noise on init. David. guess    .... on
   Maximum white noise                  ....   0.010
   Pseudo random numbers                .... off
   Inactive MOs                         .... canonical
   Orbital update algorithm             .... Taylor
   Preconditioner                       .... Diag
   Full preconditioner red. dimension   ....   250
 SOSCF                  CNVSOSCF        .... on
   Start iteration      SOSCFMaxIt      ....   150
   Startup grad/error   SOSCFStart      ....  0.003300
   Hessian update       SOSCFHessUp     .... L-BFGS
 Level Shifting         CNVShift        .... on
   Level shift para.    LevelShift      ....    0.2500
   Turn off err/grad.   ShiftErr        ....    0.0010
 Zerner damping         CNVZerner       .... off
 Static damping         CNVDamp         .... on
   Fraction old density DampFac         ....    0.7000
   Max. Damping (<1)    DampMax         ....    0.9800
   Min. Damping (>=0)   DampMin         ....    0.0000
   Turn off err/grad.   DampErr         ....    0.1000

SCF Procedure:
 Maximum # iterations   MaxIter         ....   125
 SCF integral mode      SCFMode         .... Direct
   Integral package                     .... SHARK and LIBINT hybrid scheme
 Reset frequency        DirectResetFreq ....    20
 Integral Threshold     Thresh          ....  3.000e-11 Eh
 Primitive CutOff       TCut            ....  1.000e-12 Eh

Convergence Tolerance:
 Convergence Check Mode ConvCheckMode   .... Total+1el-Energy
 Convergence forced     ConvForced      .... 0
 Energy Change          TolE            ....  1.000e-07 Eh
 1-El. energy change                    ....  1.000e-04 Eh
 Orbital Gradient       TolG            ....  1.000e-04
 Orbital Rotation angle TolX            ....  1.000e-04
 DIIS Error             TolErr          ....  1.000e-07

---------------------
INITIAL GUESS: MOREAD
---------------------
Guess MOs are being read from file: sp_gas.ges
Input Geometry matches current geometry (good)
Atom 0: N(Shells)= 11 and 9 - projection required
Input basis set needs projection
NBasis(read)= 190
NBasis(calc)= 284
Basis set overlap was calculated
Using GuessMode=FMatrix for the initial guess
C*T matrix was formed
Effective Fockian was calculated
Effective Fockian was diagonalized
Initial density was built
                      ------------------
                      INITIAL GUESS DONE (   0.1 sec)
                      ------------------
             **** ENERGY FILE WAS UPDATED (sp_gas.en.tmp) ****
Finished Guess after   0.3 sec
Maximum memory used throughout the entire GUESS-calculation: 25.2 MB

-------------------------------------------------------------------------------------------
                                      ORCA LEAN-SCF
                              memory conserving SCF solver
-------------------------------------------------------------------------------------------

----------------------------------------D-I-I-S--------------------------------------------
Iteration    Energy (Eh)           Delta-E    RMSDP     MaxDP     DIISErr   Damp  Time(sec)
-------------------------------------------------------------------------------------------
               ***  Starting incremental Fock matrix formation  ***
    1    -767.2755090011569337     0.00e+00  1.76e-03  4.58e-02  7.13e-02  0.700  16.2
    2    -767.2818276801933735    -6.32e-03  1.50e-03  4.07e-02  5.17e-02  0.700   9.6
                               ***Turning on AO-DIIS***
    3    -767.2865258553320018    -4.70e-03  1.21e-03  3.35e-02  3.69e-02  0.700   8.3
    4    -767.2899504370780051    -3.42e-03  3.01e-03  8.80e-02  2.59e-02  0.000   8.0
                              *** Initializing SOSCF ***
---------------------------------------S-O-S-C-F--------------------------------------
Iteration    Energy (Eh)           Delta-E    RMSDP     MaxDP     MaxGrad    Time(sec)
--------------------------------------------------------------------------------------
    5    -767.2985998215594918    -8.65e-03  1.37e-04  6.78e-03  1.53e-03     8.4
               *** Restarting incremental Fock matrix formation ***
    6    -767.2986316236026596    -3.18e-05  4.93e-05  2.22e-03  5.71e-04    16.1
    7    -767.2986398499044753    -8.23e-06  4.70e-05  2.89e-03  1.88e-04    13.0
    8    -767.2986411861954821    -1.34e-06  1.48e-05  9.14e-04  1.14e-04    12.4
    9    -767.2986416120736521    -4.26e-07  2.70e-06  1.32e-04  2.01e-05    11.6
                  *** Gradient check signals convergence ***

               *****************************************************
               *                     SUCCESS                       *
               *           SCF CONVERGED AFTER   9 CYCLES          *
               *****************************************************


------------------
NL GRID GENERATION
------------------

General Integration Accuracy     IntAcc      ... 4.004
Radial Grid Type                 RadialGrid  ... OptM3 with GC (2021)
Angular Grid (max. ang.)         AngularGrid ... 2 (Lebedev-110)
Angular grid pruning method      GridPruning ... 4 (adaptive)
Weight generation scheme         WeightScheme... mBecke (2022)
Basis function cutoff            BFCut       ... 1.0000e-10
Integration weight cutoff        WCut        ... 1.0000e-14
Partially contracted basis set               ... off
Rotationally invariant grid construction     ... off
Angular grids for H and He will be reduced by one unit

Total number of grid points                  ...    21173
Total number of batches                      ...      337
Average number of points per batch           ...       62
Average number of grid points per atom       ...     1629
Final grid set up in    0.2 sec

-------------------------------------------------------------------------------
                    post-SCF DFT-NL dispersion correction                      
-------------------------------------------------------------------------------

SCF Energy:     -767.298641612 
NL    Energy:      0.256395467 
SC+NL Energy:   -767.042246145 
NL done in  :              2.0 sec
-------------------------------------------------------------------------------
Recomputing exchange energy using gridx3       ... done (   28.597 sec)
Old exchange energy                            :    -20.137766896 Eh
New exchange energy                            :    -20.137758062 Eh
Exchange energy change after final integration :      0.000008834 Eh
Total energy after final integration           :   -767.042237312 Eh
             **** ENERGY FILE WAS UPDATED (sp_gas.en.tmp) ****

----------------
TOTAL SCF ENERGY
----------------

Total Energy       :       -767.04223731167122 Eh          -20872.28040 eV

Components:
Nuclear Repulsion  :        405.10934769273285 Eh           11023.58578 eV
Electronic Energy  :      -1172.40798930480651 Eh          -31902.84330 eV
One Electron Energy:      -1854.49533238961817 Eh          -50463.38350 eV
Two Electron Energy:        682.08734308481178 Eh           18560.54020 eV

Virial components:
Potential Energy   :      -1532.19178279357902 Eh          -41693.05804 eV
Kinetic Energy     :        765.14954548190792 Eh           20820.77764 eV
Virial Ratio       :          2.00247362341249

DFT components:
N(Alpha)           :       33.000026354328 electrons
N(Beta)            :       33.000026354328 electrons
N(Total)           :       66.000052708656 electrons
E(X)               :      -48.334786819624 Eh       
E(C)               :       -2.949704093512 Eh       
NL Energy, E(C,NL) :        0.256395466761 Eh       
E(XC)              :      -51.028095446375 Eh       

---------------
SCF CONVERGENCE
---------------

  Last Energy change         ...    4.2588e-07  Tolerance :   1.0000e-07
  Last MAX-Density change    ...    1.3234e-04  Tolerance :   1.0000e-05
  Last RMS-Density change    ...    2.7030e-06  Tolerance :   1.0000e-06
  Last DIIS Error            ...    1.5341e-03  Tolerance :   1.0000e-07
  Last Orbital Gradient      ...    2.0065e-05  Tolerance :   1.0000e-04
  Last Orbital Rotation      ...    4.6387e-05  Tolerance :   1.0000e-04


----------------
ORBITAL ENERGIES
----------------

  NO   OCC          E(Eh)            E(eV) 
   0   2.0000    -107.159171     -2915.9493 
   1   2.0000     -21.713088      -590.8432 
   2   2.0000     -12.132058      -330.1301 
   3   2.0000     -12.119805      -329.7967 
   4   2.0000     -12.072077      -328.4979 
   5   2.0000     -12.066043      -328.3337 
   6   2.0000     -12.060790      -328.1908 
   7   2.0000     -12.059515      -328.1561 
   8   2.0000     -11.312219      -307.8211 
   9   2.0000      -9.103741      -247.7254 
  10   2.0000      -9.101183      -247.6558 
  11   2.0000      -9.101064      -247.6525 
  12   2.0000      -1.729418       -47.0598 
  13   2.0000      -1.442078       -39.2409 
  14   2.0000      -1.386255       -37.7219 
  15   2.0000      -1.298277       -35.3279 
  16   2.0000      -1.280829       -34.8531 
  17   2.0000      -1.167964       -31.7819 
  18   2.0000      -1.135903       -30.9095 
  19   2.0000      -1.078769       -29.3548 
  20   2.0000      -1.017634       -27.6912 
  21   2.0000      -0.971075       -26.4243 
  22   2.0000      -0.959234       -26.1021 
  23   2.0000      -0.958512       -26.0824 
  24   2.0000      -0.924327       -25.1522 
  25   2.0000      -0.901475       -24.5304 
  26   2.0000      -0.853642       -23.2288 
  27   2.0000      -0.835395       -22.7322 
  28   2.0000      -0.834484       -22.7075 
  29   2.0000      -0.806473       -21.9453 
  30   2.0000      -0.775049       -21.0902 
  31   2.0000      -0.659810       -17.9543 
  32   2.0000      -0.651313       -17.7231 
  33   0.0000      -0.281153        -7.6506 
  34   0.0000      -0.266672        -7.2565 
  35   0.0000      -0.257047        -6.9946 
  36   0.0000      -0.146267        -3.9801 
  37   0.0000      -0.088417        -2.4059 
  38   0.0000      -0.063210        -1.7200 
  39   0.0000      -0.018383        -0.5002 
  40   0.0000      -0.010256        -0.2791 
  41   0.0000       0.004392         0.1195 
  42   0.0000       0.019043         0.5182 
  43   0.0000       0.069645         1.8951 
*Only the first 10 virtual orbitals were printed.

                    ********************************
                    * MULLIKEN POPULATION ANALYSIS *
                    ********************************

-----------------------
MULLIKEN ATOMIC CHARGES
-----------------------
   0 C :   -0.095447
   1 C :   -0.134386
   2 C :   -0.175963
   3 C :    0.112565
   4 C :    0.159701
   5 C :   -0.201748
   6 O :   -0.374780
   7 Cl:   -0.120331
   8 H :    0.124034
   9 H :    0.123142
  10 H :    0.138691
  11 H :    0.129563
  12 H :    0.314958
Sum of atomic charges:   -0.0000000

--------------------------------
MULLIKEN REDUCED ORBITAL CHARGES
--------------------------------
  0 C s       :     3.161842  s :     3.161842
      pz      :     0.948598  p :     2.838192
      px      :     0.976985
      py      :     0.912609
      dz2     :     0.004407  d :     0.087932
      dxz     :     0.005585
      dyz     :     0.025482
      dx2y2   :     0.030397
      dxy     :     0.022060
      f0      :     0.001632  f :     0.007482
      f+1     :     0.000691
      f-1     :     0.000607
      f+2     :     0.000228
      f-2     :     0.001162
      f+3     :     0.001124
      f-3     :     0.002037

  1 C s       :     3.165426  s :     3.165426
      pz      :     0.999055  p :     2.876615
      px      :     0.925294
      py      :     0.952266
      dz2     :     0.004714  d :     0.084886
      dxz     :     0.016875
      dyz     :     0.010822
      dx2y2   :     0.023978
      dxy     :     0.028495
      f0      :     0.001648  f :     0.007459
      f+1     :     0.000654
      f-1     :     0.000693
      f+2     :     0.001030
      f-2     :     0.000273
      f+3     :     0.001162
      f-3     :     0.001999

  2 C s       :     3.191343  s :     3.191343
      pz      :     0.961747  p :     2.883355
      px      :     0.970210
      py      :     0.951398
      dz2     :     0.005274  d :     0.093534
      dxz     :     0.022607
      dyz     :     0.010560
      dx2y2   :     0.021965
      dxy     :     0.033128
      f0      :     0.001691  f :     0.007731
      f+1     :     0.000671
      f-1     :     0.000722
      f+2     :     0.000828
      f-2     :     0.000698
      f+3     :     0.001205
      f-3     :     0.001916

  3 C s       :     3.130481  s :     3.130481
      pz      :     1.066487  p :     2.593596
      px      :     0.752204
      py      :     0.774904
      dz2     :     0.008520  d :     0.152878
      dxz     :     0.025992
      dyz     :     0.023918
      dx2y2   :     0.047604
      dxy     :     0.046844
      f0      :     0.002064  f :     0.010480
      f+1     :     0.001069
      f-1     :     0.000699
      f+2     :     0.000915
      f-2     :     0.001058
      f+3     :     0.001619
      f-3     :     0.003057

  4 C s       :     3.051508  s :     3.051508
      pz      :     0.913507  p :     2.582085
      px      :     0.891890
      py      :     0.776688
      dz2     :     0.006309  d :     0.190891
      dxz     :     0.035130
      dyz     :     0.039819
      dx2y2   :     0.066647
      dxy     :     0.042985
      f0      :     0.002640  f :     0.015814
      f+1     :     0.000937
      f-1     :     0.001172
      f+2     :     0.001498
      f-2     :     0.002231
      f+3     :     0.002375
      f-3     :     0.004961

  5 C s       :     3.224163  s :     3.224163
      pz      :     1.013407  p :     2.891445
      px      :     0.920184
      py      :     0.957854
      dz2     :     0.004661  d :     0.078532
      dxz     :     0.019554
      dyz     :     0.008254
      dx2y2   :     0.026387
      dxy     :     0.019676
      f0      :     0.001690  f :     0.007608
      f+1     :     0.000711
      f-1     :     0.000726
      f+2     :     0.000743
      f-2     :     0.000604
      f+3     :     0.001065
      f-3     :     0.002069

  6 O s       :     3.743572  s :     3.743572
      pz      :     1.826667  p :     4.597808
      px      :     1.271575
      py      :     1.499566
      dz2     :     0.004377  d :     0.031698
      dxz     :     0.001443
      dyz     :     0.005317
      dx2y2   :     0.011621
      dxy     :     0.008941
      f0      :     0.000236  f :     0.001702
      f+1     :     0.000430
      f-1     :     0.000243
      f+2     :     0.000030
      f-2     :     0.000107
      f+3     :     0.000362
      f-3     :     0.000293

  7 Cls       :     5.873891  s :     5.873891
      pz      :     3.942457  p :    11.181848
      px      :     3.281900
      py      :     3.957491
      dz2     :     0.007788  d :     0.059329
      dxz     :     0.017827
      dyz     :     0.000416
      dx2y2   :     0.023398
      dxy     :     0.009900
      f0      :     0.000567  f :     0.005263
      f+1     :     0.001054
      f-1     :     0.000100
      f+2     :     0.000811
      f-2     :     0.000046
      f+3     :     0.001648
      f-3     :     0.001037

  8 H s       :     0.853947  s :     0.853947
      pz      :     0.004417  p :     0.022020
      px      :     0.014006
      py      :     0.003597

  9 H s       :     0.854587  s :     0.854587
      pz      :     0.004799  p :     0.022271
      px      :     0.006945
      py      :     0.010527

 10 H s       :     0.839097  s :     0.839097
      pz      :     0.004403  p :     0.022212
      px      :     0.005441
      py      :     0.012368

 11 H s       :     0.848175  s :     0.848175
      pz      :     0.004713  p :     0.022262
      px      :     0.004972
      py      :     0.012578

 12 H s       :     0.637130  s :     0.637130
      pz      :     0.015706  p :     0.047911
      px      :     0.021133
      py      :     0.011072


------------------------
MULLIKEN OVERLAP CHARGES
------------------------
B(  0-C ,  1-C ) :   0.9598 B(  0-C ,  2-C ) :   0.0520 B(  0-C ,  3-C ) :  -0.2114 
B(  0-C ,  4-C ) :   0.0603 B(  0-C ,  5-C ) :   0.9886 B(  0-C ,  8-H ) :   0.8646 
B(  0-C ,  9-H ) :  -0.0925 B(  0-C , 11-H ) :  -0.0995 B(  1-C ,  2-C ) :   0.8616 
B(  1-C ,  3-C ) :   0.1461 B(  1-C ,  4-C ) :  -0.2309 B(  1-C ,  8-H ) :  -0.0987 
B(  1-C ,  9-H ) :   0.8564 B(  1-C , 10-H ) :  -0.0880 B(  2-C ,  3-C ) :   0.5009 
B(  2-C ,  4-C ) :   0.2475 B(  2-C ,  5-C ) :  -0.1998 B(  2-C ,  7-Cl) :  -0.0594 
B(  2-C ,  9-H ) :  -0.0930 B(  2-C , 10-H ) :   0.8522 B(  3-C ,  4-C ) :   0.1751 
B(  3-C ,  6-O ) :  -0.1959 B(  3-C ,  7-Cl) :   0.5115 B(  3-C , 10-H ) :  -0.0983 
B(  3-C , 12-H ) :  -0.1029 B(  4-C ,  5-C ) :   0.9325 B(  4-C ,  6-O ) :   0.8388 
B(  4-C ,  7-Cl) :  -0.0545 B(  4-C , 11-H ) :  -0.0868 B(  5-C ,  6-O ) :  -0.1114 
B(  5-C ,  8-H ) :  -0.0984 B(  5-C , 11-H ) :   0.8311 B(  6-O , 12-H ) :   0.6066 
B(  7-Cl, 12-H ) :   0.0536 


                     *******************************
                     * LOEWDIN POPULATION ANALYSIS *
                     *******************************

----------------------
LOEWDIN ATOMIC CHARGES
----------------------
   0 C :   -0.132202
   1 C :   -0.151170
   2 C :   -0.140325
   3 C :   -0.402164
   4 C :   -0.271512
   5 C :   -0.113797
   6 O :    0.081531
   7 Cl:    0.364291
   8 H :    0.145239
   9 H :    0.143499
  10 H :    0.148637
  11 H :    0.151058
  12 H :    0.176915

-------------------------------
LOEWDIN REDUCED ORBITAL CHARGES
-------------------------------
  0 C s       :     2.762584  s :     2.762584
      pz      :     0.871473  p :     2.933766
      px      :     0.991968
      py      :     1.070325
      dz2     :     0.024893  d :     0.392301
      dxz     :     0.013239
      dyz     :     0.087509
      dx2y2   :     0.162868
      dxy     :     0.103792
      f0      :     0.003138  f :     0.043552
      f+1     :     0.003154
      f-1     :     0.004302
      f+2     :     0.001586
      f-2     :     0.008134
      f+3     :     0.008383
      f-3     :     0.014855

  1 C s       :     2.761129  s :     2.761129
      pz      :     0.911462  p :     2.964212
      px      :     1.035883
      py      :     1.016867
      dz2     :     0.025137  d :     0.382700
      dxz     :     0.056196
      dyz     :     0.034150
      dx2y2   :     0.109899
      dxy     :     0.157316
      f0      :     0.003120  f :     0.043129
      f+1     :     0.003979
      f-1     :     0.003596
      f+2     :     0.007068
      f-2     :     0.001901
      f+3     :     0.008484
      f-3     :     0.014981

  2 C s       :     2.764416  s :     2.764416
      pz      :     0.880857  p :     2.941874
      px      :     1.064189
      py      :     0.996829
      dz2     :     0.025925  d :     0.390153
      dxz     :     0.075836
      dyz     :     0.029605
      dx2y2   :     0.115437
      dxy     :     0.143350
      f0      :     0.003338  f :     0.043881
      f+1     :     0.004169
      f-1     :     0.003532
      f+2     :     0.005619
      f-2     :     0.005009
      f+3     :     0.008616
      f-3     :     0.013597

  3 C s       :     2.776067  s :     2.776067
      pz      :     0.972041  p :     2.982572
      px      :     0.928142
      py      :     1.082389
      dz2     :     0.042003  d :     0.582755
      dxz     :     0.083287
      dyz     :     0.078906
      dx2y2   :     0.211453
      dxy     :     0.167106
      f0      :     0.004451  f :     0.060770
      f+1     :     0.005181
      f-1     :     0.004718
      f+2     :     0.006396
      f-2     :     0.007525
      f+3     :     0.011401
      f-3     :     0.021097

  4 C s       :     2.718737  s :     2.718737
      pz      :     0.849987  p :     2.774441
      px      :     1.006613
      py      :     0.917841
      dz2     :     0.045140  d :     0.682662
      dxz     :     0.099592
      dyz     :     0.127565
      dx2y2   :     0.206845
      dxy     :     0.203520
      f0      :     0.007123  f :     0.095672
      f+1     :     0.005689
      f-1     :     0.007989
      f+2     :     0.009601
      f-2     :     0.016144
      f+3     :     0.017943
      f-3     :     0.031182

  5 C s       :     2.758858  s :     2.758858
      pz      :     0.914132  p :     2.948702
      px      :     1.025314
      py      :     1.009256
      dz2     :     0.025558  d :     0.363887
      dxz     :     0.063238
      dyz     :     0.023081
      dx2y2   :     0.133433
      dxy     :     0.118577
      f0      :     0.003209  f :     0.042350
      f+1     :     0.004315
      f-1     :     0.003387
      f+2     :     0.005021
      f-2     :     0.004029
      f+3     :     0.008463
      f-3     :     0.013925

  6 O s       :     3.322080  s :     3.322080
      pz      :     1.712495  p :     4.521450
      px      :     1.281073
      py      :     1.527883
      dz2     :     0.008272  d :     0.070211
      dxz     :     0.004367
      dyz     :     0.009834
      dx2y2   :     0.029428
      dxy     :     0.018311
      f0      :     0.000400  f :     0.004727
      f+1     :     0.000725
      f-1     :     0.000410
      f+2     :     0.000107
      f-2     :     0.000489
      f+3     :     0.001013
      f-3     :     0.001582

  7 Cls       :     5.549835  s :     5.549835
      pz      :     3.868770  p :    10.977616
      px      :     3.267930
      py      :     3.840916
      dz2     :     0.011567  d :     0.097248
      dxz     :     0.030042
      dyz     :     0.000360
      dx2y2   :     0.036315
      dxy     :     0.018964
      f0      :     0.001217  f :     0.011010
      f+1     :     0.001802
      f-1     :     0.000183
      f+2     :     0.001996
      f-2     :     0.000067
      f+3     :     0.003029
      f-3     :     0.002716

  8 H s       :     0.796772  s :     0.796772
      pz      :     0.012758  p :     0.057989
      px      :     0.034374
      py      :     0.010858

  9 H s       :     0.797750  s :     0.797750
      pz      :     0.013866  p :     0.058751
      px      :     0.018322
      py      :     0.026564

 10 H s       :     0.792461  s :     0.792461
      pz      :     0.013019  p :     0.058903
      px      :     0.014937
      py      :     0.030947

 11 H s       :     0.789696  s :     0.789696
      pz      :     0.013759  p :     0.059246
      px      :     0.014083
      py      :     0.031405

 12 H s       :     0.668750  s :     0.668750
      pz      :     0.041884  p :     0.154335
      px      :     0.076615
      py      :     0.035836


---------------------------------
LOEWDIN BOND ORDERS (THRESH 0.050000)
---------------------------------
B(  0-C ,  1-C ) :   1.5687 B(  0-C ,  2-C ) :   0.2452 B(  0-C ,  3-C ) :   0.1047 
B(  0-C ,  4-C ) :   0.2422 B(  0-C ,  5-C ) :   1.5965 B(  0-C ,  8-H ) :   0.8288 
B(  0-C ,  9-H ) :   0.0945 B(  0-C , 11-H ) :   0.0951 B(  1-C ,  2-C ) :   1.5856 
B(  1-C ,  3-C ) :   0.2470 B(  1-C ,  4-C ) :   0.1003 B(  1-C ,  5-C ) :   0.2406 
B(  1-C ,  8-H ) :   0.0947 B(  1-C ,  9-H ) :   0.8302 B(  1-C , 10-H ) :   0.0944 
B(  2-C ,  3-C ) :   1.5561 B(  2-C ,  4-C ) :   0.2310 B(  2-C ,  5-C ) :   0.1079 
B(  2-C ,  7-Cl) :   0.1600 B(  2-C ,  9-H ) :   0.0978 B(  2-C , 10-H ) :   0.8233 
B(  3-C ,  4-C ) :   1.4570 B(  3-C ,  5-C ) :   0.2317 B(  3-C ,  6-O ) :   0.1419 
B(  3-C ,  7-Cl) :   1.5726 B(  3-C , 10-H ) :   0.0985 B(  4-C ,  5-C ) :   1.4770 
B(  4-C ,  6-O ) :   1.6592 B(  4-C ,  7-Cl) :   0.1586 B(  4-C , 11-H ) :   0.0984 
B(  4-C , 12-H ) :   0.1050 B(  5-C ,  6-O ) :   0.1513 B(  5-C ,  8-H ) :   0.0979 
B(  5-C , 11-H ) :   0.8209 B(  6-O , 12-H ) :   0.9796 B(  7-Cl, 12-H ) :   0.0518 


------------------------------------------
LOEWDIN REDUCED ORBITAL POPULATIONS PER MO
-------------------------------------------
THRESHOLD FOR PRINTING IS 0.1%%
                      0         1         2         3         4         5   
                 -107.15917 -21.71309 -12.13206 -12.11981 -12.07208 -12.06604
                   2.00000   2.00000   2.00000   2.00000   2.00000   2.00000
                  --------  --------  --------  --------  --------  --------
 0 C  s               0.0       0.0       0.0       0.0       0.0      93.0
 1 C  s               0.0       0.0       0.0       0.0       0.7       2.3
 1 C  dx2y2           0.0       0.0       0.0       0.0       0.2       0.1
 1 C  dxy             0.0       0.0       0.0       0.0       0.0       0.1
 2 C  s               0.0       0.0       0.0       0.1      98.2       0.0
 2 C  dxy             0.0       0.0       0.0       0.2       0.0       0.0
 3 C  s               0.0       0.0       0.8      98.2       0.1       0.0
 3 C  dxy             0.0       0.0       0.1       0.0       0.2       0.0
 4 C  s               0.0       0.0      98.1       0.8       0.0       0.0
 4 C  dxy             0.0       0.0       0.0       0.1       0.0       0.0
 5 C  s               0.0       0.0       0.0       0.0       0.0       3.6
 5 C  dx2y2           0.0       0.0       0.2       0.0       0.0       0.0
 5 C  dxy             0.0       0.0       0.0       0.0       0.0       0.2
 6 O  s               0.0      99.8       0.0       0.0       0.0       0.0
 7 Cl s             100.0       0.0       0.0       0.0       0.0       0.0

                      6         7         8         9        10        11   
                 -12.06079 -12.05951 -11.31222  -9.10374  -9.10118  -9.10106
                   2.00000   2.00000   2.00000   2.00000   2.00000   2.00000
                  --------  --------  --------  --------  --------  --------
 0 C  s               2.1       3.9       0.0       0.0       0.0       0.0
 0 C  py              0.1       0.0       0.0       0.0       0.0       0.0
 0 C  dx2y2           0.0       0.1       0.0       0.0       0.0       0.0
 0 C  dxy             0.3       0.0       0.0       0.0       0.0       0.0
 1 C  s               7.1      88.9       0.0       0.0       0.0       0.0
 2 C  s               0.1       0.6       0.0       0.0       0.0       0.0
 2 C  dx2y2           0.0       0.2       0.0       0.0       0.0       0.0
 4 C  dx2y2           0.2       0.0       0.0       0.0       0.0       0.0
 5 C  s              89.7       5.7       0.0       0.0       0.0       0.0
 7 Cl s               0.0       0.0      99.8       0.0       0.0       0.0
 7 Cl pz              0.0       0.0       0.0       0.0       0.0     100.0
 7 Cl px              0.0       0.0       0.0      98.8       1.1       0.0
 7 Cl py              0.0       0.0       0.0       1.1      98.9       0.0

                     12        13        14        15        16        17   
                  -1.72942  -1.44208  -1.38626  -1.29828  -1.28083  -1.16796
                   2.00000   2.00000   2.00000   2.00000   2.00000   2.00000
                  --------  --------  --------  --------  --------  --------
 0 C  s               0.0       1.3      10.3       0.1      16.2       1.1
 0 C  px              0.0       0.7       2.7       0.0       0.5       0.0
 0 C  py              0.0       0.0       0.0       7.8       0.0       5.7
 0 C  dz2             0.0       0.1       0.5       0.0       0.2       0.0
 0 C  dx2y2           0.0       0.0       0.0       0.1       0.4       0.0
 0 C  dxy             0.0       0.0       0.0       1.9       0.0       0.5
 0 C  f+3             0.0       0.0       0.1       0.0       0.1       0.0
 1 C  s               0.0       1.8       8.8      11.8       3.1       5.4
 1 C  px              0.0       0.8       0.5       2.2       4.4       0.2
 1 C  py              0.0       0.3       2.1       0.3       3.1       1.5
 1 C  dz2             0.0       0.1       0.5       0.2       0.0       0.0
 1 C  dx2y2           0.0       0.0       0.0       0.7       1.4       0.1
 1 C  dxy             0.0       0.0       0.0       0.1       0.5       0.1
 1 C  f+3             0.0       0.0       0.1       0.1       0.0       0.0
 2 C  s               0.0       5.4       5.6      12.7       4.3       0.3
 2 C  px              0.0       0.9       2.4       2.0       3.2       5.7
 2 C  py              0.1       2.4       1.0       0.3       1.4       2.0
 2 C  dz2             0.0       0.3       0.3       0.2       0.0       0.0
 2 C  dx2y2           0.0       0.0       0.0       0.8       0.7       0.7
 2 C  dxy             0.0       0.4       0.1       0.0       0.9       0.2
 3 C  s               0.5      19.0       1.0       0.0      10.0       3.5
 3 C  px              0.0       3.9      13.5       0.2       3.9       0.3
 3 C  py              1.4       0.1       0.1       9.2       0.0       0.1
 3 C  dz2             0.1       1.4       0.0       0.0       0.0       0.0
 3 C  dx2y2           0.3       1.4       1.0       0.0       1.8       0.0
 3 C  dxy             0.0       0.0       0.0       2.2       0.1       0.1
 3 C  f+1             0.0       0.0       0.1       0.0       0.0       0.0
 3 C  f+3             0.0       0.3       0.0       0.0       0.0       0.0
 4 C  s               7.5       4.2       5.5      10.7       3.0       1.5
 4 C  px              3.7       0.2       4.3       2.8       2.5       0.2
 4 C  py              7.2       4.3       0.9       0.1       3.1      11.0
 4 C  dz2             1.2       0.2       0.2       0.0       0.0       0.1
 4 C  dx2y2           0.4       0.0       0.0       0.7       1.4       0.3
 4 C  dxy             3.0       0.8       0.0       0.5       0.5       0.1
 4 C  f-1             0.2       0.0       0.0       0.0       0.0       0.1
 4 C  f+3             0.5       0.0       0.0       0.1       0.0       0.0
 5 C  s               0.4       1.7       9.9       9.2       4.9       1.4
 5 C  px              1.3       0.4       0.2       2.8       5.0       3.1
 5 C  py              0.1       0.6       2.4       0.3       1.7       1.7
 5 C  dz2             0.1       0.1       0.5       0.1       0.1       0.0
 5 C  dx2y2           0.2       0.0       0.0       1.0       0.5       0.1
 5 C  dxy             0.1       0.0       0.0       0.0       1.3       0.2
 5 C  f-3             0.0       0.0       0.0       0.0       0.0       0.2
 6 O  s              56.2       0.5       0.3       1.2       0.4       0.2
 6 O  px              0.0       0.2       0.9       5.5       0.4      29.5
 6 O  py              1.4       0.5       0.5       2.8       1.3       5.6
 6 O  dx2y2           0.0       0.0       0.0       0.1       0.1       0.2
 6 O  dxy             0.0       0.0       0.0       0.2       0.0       0.5
 7 Cl s               0.0      42.1      18.3       0.1       8.3       1.6
 7 Cl px              0.0       1.0       0.2       0.0       2.1       1.5
 7 Cl dx2y2           0.0       0.2       0.0       0.0       0.3       0.1
 8 H  s               0.0       0.1       1.2       0.0       2.8       0.4
 8 H  px              0.0       0.0       0.1       0.0       0.3       0.1
 9 H  s               0.0       0.2       1.0       1.9       0.5       1.9
 9 H  px              0.0       0.0       0.0       0.1       0.0       0.1
 9 H  py              0.0       0.0       0.1       0.1       0.1       0.1
10 H  s               0.0       0.8       0.5       2.1       0.7       0.1
10 H  py              0.0       0.0       0.0       0.2       0.1       0.0
11 H  s               0.1       0.2       1.1       1.5       0.8       0.2
11 H  py              0.0       0.0       0.1       0.1       0.1       0.0
12 H  s              10.6       0.3       0.4       2.0       0.4       8.9
12 H  px              2.8       0.0       0.0       0.2       0.0       0.4
12 H  py              0.1       0.0       0.0       0.1       0.0       0.4

                     18        19        20        21        22        23   
                  -1.13590  -1.07877  -1.01763  -0.97108  -0.95923  -0.95851
                   2.00000   2.00000   2.00000   2.00000   2.00000   2.00000
                  --------  --------  --------  --------  --------  --------
 0 C  s               2.1       5.6       0.1       0.4       0.0       0.0
 0 C  px              0.7       2.9       0.2       2.3       0.0       0.2
 0 C  py              8.8       0.8       8.1       0.3       0.0      11.7
 0 C  dx2y2           0.0       0.0       0.0       0.8       0.0       0.0
 0 C  dxy             0.4       0.0       0.0       0.1       0.0       0.1
 1 C  s               2.0       2.5       0.1       1.9       0.0       0.0
 1 C  pz              0.0       0.0       0.0       0.0       0.1       0.0
 1 C  px              7.7       2.1       3.5       5.2       0.0       8.2
 1 C  py              2.0       3.7       2.7       7.9       0.0       3.4
 1 C  dx2y2           0.4       0.0       0.1       0.0       0.0       0.1
 1 C  dxy             0.1       0.2       0.2       0.0       0.0       0.0
 2 C  s               6.9       0.1       1.5       0.4       0.0       0.0
 2 C  px              1.2      12.4       0.7       0.3       0.0       9.5
 2 C  py              0.9       1.1       5.1       3.8       0.0       1.5
 2 C  dx2y2           0.0       0.1       0.0       0.5       0.0       0.1
 2 C  dxy             0.0       0.1       0.0       0.6       0.0       0.1
 3 C  s               1.2       1.9       0.6       1.0       0.0       0.1
 3 C  pz              0.0       0.0       0.0       0.0       0.9       0.0
 3 C  px              0.3       0.7       0.6      11.0       0.0       0.3
 3 C  py             16.1       7.8       0.3       0.0       0.0      11.2
 3 C  dyz             0.0       0.0       0.0       0.0       0.4       0.0
 3 C  dx2y2           0.1       0.5       0.6       0.2       0.0       0.2
 3 C  dxy             0.2       0.5       0.4       0.2       0.0       0.1
 4 C  s               1.2       1.4       0.1       0.1       0.0       0.2
 4 C  pz              0.0       0.0       0.0       0.0      12.7       0.0
 4 C  px             12.7       5.0       6.2       0.4       0.0       4.9
 4 C  py              5.7       3.4       1.1       0.3       0.0       4.1
 4 C  dxz             0.0       0.0       0.0       0.0       1.3       0.0
 4 C  dyz             0.0       0.0       0.0       0.0       2.5       0.0
 4 C  dx2y2           0.1       1.6       2.2       0.4       0.0       1.4
 4 C  dxy             0.1       0.3       0.2       2.4       0.0       0.1
 4 C  f0              0.0       0.0       0.0       0.0       0.3       0.0
 4 C  f-2             0.0       0.0       0.0       0.0       0.4       0.0
 4 C  f-3             0.0       0.1       0.2       0.0       0.0       0.6
 5 C  s               7.1       0.6       0.7       1.4       0.0       0.0
 5 C  pz              0.0       0.0       0.0       0.0       0.6       0.0
 5 C  px              0.1       8.9       7.8       0.1       0.0       9.3
 5 C  py              2.3       0.6       0.1       8.2       0.0       2.3
 5 C  dxz             0.0       0.0       0.0       0.0       0.5       0.0
 5 C  dxy             0.0       1.6       0.1       0.2       0.0       0.0
 6 O  s               0.8       0.3       4.0       0.1       0.0       1.9
 6 O  pz              0.0       0.0       0.0       0.0      77.7       0.0
 6 O  px              0.8      14.1       5.1       0.1       0.0       6.7
 6 O  py              5.0       0.6      39.0       1.7       0.0      14.6
 6 O  dz2             0.0       0.0       0.1       0.0       0.0       0.1
 6 O  dx2y2           0.2       0.2       0.0       0.0       0.0       0.4
 7 Cl s               0.7       1.3       0.0       3.4       0.0       0.0
 7 Cl pz              0.0       0.0       0.0       0.0       0.2       0.0
 7 Cl px              0.8       3.7       0.0      26.1       0.0       0.2
 7 Cl py              0.6       0.2       0.3       0.2       0.0       1.4
 7 Cl dz2             0.0       0.1       0.0       0.2       0.0       0.0
 7 Cl dx2y2           0.0       0.4       0.1       0.5       0.0       0.0
 7 Cl dxy             0.3       0.1       0.0       0.0       0.0       0.2
 8 H  s               0.9       4.3       0.3       0.4       0.0       0.0
 8 H  px              0.1       0.4       0.0       0.0       0.0       0.0
 8 H  py              0.1       0.0       0.1       0.0       0.0       0.2
 9 H  s               0.8       1.5       0.0       9.1       0.0       0.0
 9 H  px              0.0       0.2       0.0       0.1       0.0       0.1
 9 H  py              0.2       0.0       0.0       0.3       0.0       0.1
10 H  s               3.4       0.2       2.7       0.8       0.0       0.0
10 H  px              0.0       0.1       0.1       0.0       0.0       0.1
10 H  py              0.3       0.1       0.1       0.0       0.0       0.0
11 H  s               3.4       0.1       1.2       5.5       0.0       0.0
11 H  px              0.1       0.1       0.0       0.1       0.0       0.1
11 H  py              0.3       0.0       0.2       0.2       0.0       0.0
12 H  s               0.0       4.8       1.7       0.0       0.0       3.0
12 H  pz              0.0       0.0       0.0       0.0       1.8       0.0
12 H  py              0.1       0.1       0.7       0.0       0.0       0.1

                     24        25        26        27        28        29   
                  -0.92433  -0.90147  -0.85364  -0.83539  -0.83448  -0.80647
                   2.00000   2.00000   2.00000   2.00000   2.00000   2.00000
                  --------  --------  --------  --------  --------  --------
 0 C  s               1.1       0.4       0.3       0.2       0.0       0.0
 0 C  pz              0.0       0.0       0.0       0.0       1.2       0.0
 0 C  px             18.8       3.7       7.0       9.6       0.0       0.0
 0 C  py              0.0       0.2       4.7       4.6       0.0       0.6
 0 C  dz2             0.0       0.1       0.0       0.1       0.0       0.0
 0 C  dx2y2           0.7       0.5       1.9       3.4       0.0       0.0
 0 C  dxy             0.1       0.3       1.3       0.0       0.0       0.1
 0 C  f-3             0.1       0.1       0.2       0.0       0.0       0.0
 1 C  s               0.6       0.4       0.6       0.0       0.0       0.0
 1 C  pz              0.0       0.0       0.0       0.0       1.4       0.0
 1 C  px              3.1       0.4       9.0       4.0       0.0       0.4
 1 C  py              3.7       0.9      12.1       5.7       0.0       1.2
 1 C  dz2             0.1       0.0       0.0       0.0       0.0       0.0
 1 C  dxz             0.0       0.0       0.0       0.0       0.1       0.0
 1 C  dx2y2           0.2       0.5       1.3       0.4       0.0       0.0
 1 C  dxy             0.6       1.1       4.3       0.2       0.0       0.4
 1 C  f-3             0.0       0.3       0.1       0.1       0.0       0.0
 2 C  s               1.0       0.5       0.5       0.2       0.0       0.1
 2 C  pz              0.0       0.0       0.0       0.0       5.0       0.0
 2 C  px              3.2       1.4       4.1       5.0       0.0       1.0
 2 C  py              6.7      17.1       0.6       4.5       0.0       1.2
 2 C  dxz             0.0       0.0       0.0       0.0       0.1       0.0
 2 C  dyz             0.0       0.0       0.0       0.0       0.4       0.0
 2 C  dx2y2           1.5       0.1       0.0       1.0       0.0       0.0
 2 C  dxy             0.0       1.4       1.1       1.7       0.0       0.3
 2 C  f-3             0.2       0.1       0.1       0.0       0.0       0.0
 3 C  s               0.1       0.6       0.2       0.0       0.0       0.0
 3 C  pz              0.0       0.0       0.0       0.0      17.9       0.0
 3 C  px              4.8       5.1       1.2       0.4       0.0       0.0
 3 C  py              1.7       0.5       1.2       1.9       0.0       2.5
 3 C  dz2             0.0       0.2       0.0       0.0       0.0       0.0
 3 C  dxz             0.0       0.0       0.0       0.0       1.2       0.0
 3 C  dx2y2           2.0       0.0       0.5       1.5       0.0       0.2
 3 C  dxy             0.2       0.6       0.3       0.3       0.0       2.9
 3 C  f0              0.0       0.0       0.0       0.0       0.2       0.0
 3 C  f-3             0.1       0.2       0.0       0.1       0.0       0.3
 4 C  s               1.0       0.3       0.1       0.1       0.0       0.1
 4 C  pz              0.0       0.0       0.0       0.0       2.3       0.0
 4 C  px              0.1       1.8       0.4       3.5       0.0       1.4
 4 C  py              2.3       0.1       0.2       1.0       0.0       0.9
 4 C  dz2             0.1       0.0       0.0       0.0       0.0       0.0
 4 C  dyz             0.0       0.0       0.0       0.0       1.2       0.0
 4 C  dx2y2           0.3       0.9       0.1       0.2       0.0       0.0
 4 C  dxy             0.1       0.4       1.1       0.4       0.0       0.1
 4 C  f-2             0.0       0.0       0.0       0.0       0.1       0.0
 4 C  f-3             0.0       0.4       0.0       0.0       0.0       0.0
 5 C  s               0.4       0.7       0.2       0.3       0.0       0.0
 5 C  pz              0.0       0.0       0.0       0.0       1.3       0.0
 5 C  px              0.7       5.2       1.9       3.9       0.0       0.4
 5 C  py              0.2      16.4       7.5       4.7       0.0       1.2
 5 C  dx2y2           1.3       0.2       0.0       2.7       0.0       0.2
 5 C  dxy             0.0       0.8       0.1       1.0       0.0       0.3
 5 C  f-3             0.3       0.0       0.0       0.1       0.0       0.0
 6 O  pz              0.0       0.0       0.0       0.0       2.3       0.0
 6 O  px              0.0       0.0       0.1       0.3       0.0       0.2
 6 O  py              2.0       0.1       0.4       0.6       0.0       0.1
 7 Cl s               1.2       0.5       0.1       0.1       0.0       0.0
 7 Cl pz              0.0       0.0       0.0       0.0      64.3       0.0
 7 Cl px             14.7       6.2       2.0       4.4       0.0       0.4
 7 Cl py              0.0       0.0       5.2       5.5       0.0      78.4
 7 Cl dxz             0.0       0.0       0.0       0.0       0.2       0.0
 7 Cl dx2y2           0.2       0.0       0.0       0.0       0.0       0.0
 7 Cl dxy             0.0       0.0       0.0       0.0       0.0       0.2
 8 H  s              13.0       0.9       6.1       9.4       0.0       0.1
 8 H  px              0.4       0.0       0.1       0.2       0.0       0.0
 9 H  s               1.9       1.1      18.3       0.4       0.0       1.3
 9 H  px              0.0       0.0       0.1       0.1       0.0       0.0
 9 H  py              0.0       0.0       0.3       0.0       0.0       0.0
10 H  s               7.9      12.1       0.2       7.5       0.0       0.6
10 H  px              0.0       0.1       0.1       0.0       0.0       0.0
10 H  py              0.2       0.2       0.0       0.1       0.0       0.0
11 H  s               0.2      14.1       1.8       7.8       0.0       1.3
11 H  px              0.0       0.0       0.1       0.0       0.0       0.0
11 H  py              0.0       0.4       0.0       0.1       0.0       0.0
12 H  s               0.1       0.0       0.2       0.2       0.0       0.7
12 H  py              0.1       0.0       0.0       0.0       0.0       0.1

                     30        31        32        33        34        35   
                  -0.77505  -0.65981  -0.65131  -0.28115  -0.26667  -0.25705
                   2.00000   2.00000   2.00000   0.00000   0.00000   0.00000
                  --------  --------  --------  --------  --------  --------
 0 C  s               0.0       0.0       0.0       0.1       0.0       0.0
 0 C  pz             14.2      25.3       3.0       0.0      19.8       2.6
 0 C  dxz             0.5       0.1       0.0       0.0       0.8       0.3
 0 C  dyz             0.0       0.5       3.9       0.0       0.6       4.6
 0 C  f0              0.1       0.0       0.0       0.0       0.1       0.0
 0 C  f-2             0.0       0.1       0.3       0.0       0.0       0.4
 1 C  s               0.0       0.0       0.0       0.3       0.0       0.0
 1 C  pz             13.7       0.9      29.4       0.0      10.3      10.4
 1 C  px              0.0       0.0       0.0       0.6       0.0       0.0
 1 C  dxz             0.2       2.4       0.1       0.0       0.7       3.6
 1 C  dyz             0.3       1.3       0.0       0.0       2.3       0.2
 1 C  dxy             0.0       0.0       0.0       0.3       0.0       0.0
 1 C  f0              0.1       0.0       0.0       0.0       0.1       0.1
 1 C  f+2             0.0       0.3       0.0       0.0       0.2       0.3
 2 C  s               0.0       0.0       0.0       0.1       0.0       0.0
 2 C  pz             12.6      15.3      11.1       0.0       1.5      23.9
 2 C  px              0.0       0.0       0.0       0.1       0.0       0.0
 2 C  py              0.0       0.0       0.0       0.4       0.0       0.0
 2 C  dxz             0.2       1.1       2.4       0.0       3.3       0.8
 2 C  dyz             0.3       0.4       0.4       0.0       1.4       0.7
 2 C  dx2y2           0.0       0.0       0.0       2.1       0.0       0.0
 2 C  dxy             0.0       0.0       0.0       1.4       0.0       0.0
 2 C  f0              0.1       0.0       0.0       0.0       0.0       0.2
 2 C  f+2             0.0       0.1       0.2       0.0       0.2       0.1
 2 C  f-2             0.0       0.1       0.1       0.0       0.3       0.0
 2 C  f-3             0.0       0.0       0.0       0.4       0.0       0.0
 3 C  s               0.0       0.0       0.0       7.4       0.0       0.0
 3 C  pz              6.1      19.7       4.0       0.0      20.1       2.9
 3 C  px              0.0       0.0       0.0      22.2       0.0       0.0
 3 C  py              0.0       0.0       0.0       0.3       0.0       0.0
 3 C  dz2             0.0       0.0       0.0       1.9       0.0       0.0
 3 C  dxz             2.4       0.5       0.0       0.0       0.9       0.3
 3 C  dyz             0.0       0.4       3.0       0.0       0.8       5.2
 3 C  dx2y2           0.0       0.0       0.0       2.8       0.0       0.0
 3 C  dxy             0.0       0.0       0.0       0.2       0.0       0.0
 3 C  f0              0.0       0.0       0.0       0.0       0.3       0.0
 3 C  f+1             0.0       0.0       0.0       0.1       0.0       0.0
 3 C  f+2             0.1       0.0       0.0       0.0       0.1       0.0
 3 C  f-2             0.0       0.1       0.3       0.0       0.0       0.5
 3 C  f+3             0.0       0.0       0.0       0.6       0.0       0.0
 4 C  pz              7.4       0.3      19.8       0.0      17.3      10.4
 4 C  px              0.0       0.0       0.0       0.2       0.0       0.0
 4 C  py              0.0       0.0       0.0       2.1       0.0       0.0
 4 C  dxz             0.7       2.2       0.7       0.0       1.0       2.7
 4 C  dyz             0.8       1.4       0.6       0.0       1.2       0.7
 4 C  dx2y2           0.0       0.0       0.0       0.9       0.0       0.0
 4 C  dxy             0.0       0.0       0.0       3.2       0.0       0.0
 4 C  f0              0.0       0.0       0.0       0.0       0.3       0.2
 4 C  f+2             0.0       0.3       0.1       0.0       0.2       0.2
 4 C  f-2             0.1       0.1       0.1       0.0       0.0       0.0
 4 C  f-3             0.0       0.0       0.0       0.2       0.0       0.0
 5 C  s               0.0       0.0       0.0       0.1       0.0       0.0
 5 C  pz             13.6      17.9      12.3       0.0       0.7      21.9
 5 C  px              0.0       0.0       0.0       0.5       0.0       0.0
 5 C  dxz             0.0       1.0       1.6       0.0       4.4       0.7
 5 C  dyz             0.4       0.5       0.2       0.0       1.2       0.7
 5 C  dxy             0.0       0.0       0.0       1.0       0.0       0.0
 5 C  f0              0.1       0.0       0.0       0.0       0.0       0.2
 5 C  f+2             0.0       0.0       0.2       0.0       0.3       0.1
 5 C  f-2             0.0       0.1       0.1       0.0       0.2       0.0
 6 O  s               0.0       0.0       0.0       0.3       0.0       0.0
 6 O  pz              2.3       0.0       3.3       0.0       3.6       2.1
 6 O  px              0.0       0.0       0.0       0.5       0.0       0.0
 6 O  py              0.0       0.0       0.0       1.1       0.0       0.0
 6 O  dxz             0.1       0.0       0.2       0.0       0.2       0.1
 6 O  dyz             0.1       0.0       0.3       0.0       0.4       0.3
 7 Cl s               0.0       0.0       0.0       3.7       0.0       0.0
 7 Cl pz             22.5       5.4       0.9       0.0       1.9       0.3
 7 Cl px              0.0       0.0       0.0      28.1       0.0       0.0
 7 Cl py              0.0       0.0       0.0       0.3       0.0       0.0
 7 Cl dz2             0.0       0.0       0.0       3.1       0.0       0.0
 7 Cl dxz             0.2       0.9       0.2       0.0       1.9       0.2
 7 Cl dx2y2           0.0       0.0       0.0       9.7       0.0       0.0
 7 Cl dxy             0.0       0.0       0.0       0.3       0.0       0.0
 7 Cl f+1             0.0       0.0       0.0       0.3       0.0       0.0
 7 Cl f+3             0.0       0.0       0.0       0.5       0.0       0.0
 8 H  pz              0.1       0.4       0.1       0.0       0.6       0.1
 9 H  s               0.0       0.0       0.0       0.2       0.0       0.0
 9 H  pz              0.1       0.0       0.5       0.0       0.3       0.3
10 H  s               0.0       0.0       0.0       0.5       0.0       0.0
10 H  pz              0.1       0.3       0.2       0.0       0.0       0.7
11 H  s               0.0       0.0       0.0       0.4       0.0       0.0
11 H  pz              0.2       0.3       0.2       0.0       0.0       0.7
12 H  pz              0.1       0.0       0.2       0.0       0.1       0.0

[...]
 6 O  s               0.0       0.2       3.4       0.0       1.8       0.0
 6 O  pz              1.2       0.0       0.0       0.1       0.0       1.1
 6 O  px              0.0       6.2       2.0       0.0       0.1       0.0
 6 O  py              0.0       1.3       1.8       0.0       0.2       0.0
 6 O  dz2             0.0       1.8      15.2       0.0      17.8       0.0
 6 O  dxz             6.8       0.0       0.0      59.8       0.0      29.7
 6 O  dyz            15.5       0.0       0.0      35.1       0.0      48.7
 6 O  dx2y2           0.0       3.5       1.1       0.0      22.3       0.0
 6 O  dxy             0.0       7.6       0.6       0.0       0.2       0.0
 6 O  f0             24.0       0.0       0.0       2.4       0.0       4.5
 6 O  f+1             0.0      30.9       7.5       0.0       0.1       0.0
 6 O  f-1             0.0      13.9       0.7       0.0       0.1       0.0
 6 O  f+2             5.5       0.0       0.0       0.0       0.0       2.4
 6 O  f-2            31.9       0.0       0.0       0.8       0.0       9.2
 6 O  f+3             0.0       0.8      30.3       0.0       4.4       0.0
 6 O  f-3             0.0       0.2      10.8       0.0      23.9       0.0
11 H  s               0.0       0.2       0.0       0.0       0.1       0.0
11 H  px              0.0       0.1       0.0       0.0       0.1       0.0
12 H  s               0.0       2.2       2.1       0.0       1.4       0.0
12 H  pz              0.0       0.0       0.0       0.5       0.0       0.0
12 H  px              0.0       0.8       0.3       0.0       1.3       0.0
12 H  py              0.0       0.0       0.9       0.0       0.0       0.0

                    270       271       272       273       274       275   
                   6.34537   6.52239   6.87320   9.59890   9.69312  10.22153
                   0.00000   0.00000   0.00000   0.00000   0.00000   0.00000
                  --------  --------  --------  --------  --------  --------
 0 C  s               0.0       0.1       0.0       0.0       0.0       0.0
 3 C  s               0.1       0.2       0.5       0.0       0.0       1.1
 3 C  px              0.3       0.1       0.0       0.0       0.0       0.4
 3 C  py              0.0       0.0       0.6       0.0       0.0       0.0
 3 C  dx2y2           0.2       0.0       0.2       0.0       0.0       0.0
 3 C  dxy             0.2       0.0       0.1       0.0       0.1       0.0
 3 C  f-3             0.0       0.1       0.2       0.0       0.0       0.0
 4 C  s               0.6       1.3       0.9       0.0       0.1       0.0
 4 C  px              0.8       0.4       0.1       0.0       0.0       0.0
 4 C  py              0.3       1.5       0.0       0.0       0.0       0.0
 4 C  dz2             0.1       0.1       0.1       0.0       0.0       0.0
 4 C  dx2y2           2.1       0.3       1.1       0.0       0.0       0.0
 4 C  dxy             1.0       0.9       0.9       0.0       0.0       0.0
 4 C  f+1             0.1       0.1       0.0       0.0       0.0       0.0
 4 C  f+3             0.1       1.0       0.5       0.0       0.0       0.0
 4 C  f-3             0.2       0.0       1.9       0.0       0.0       0.0
 5 C  s               0.1       0.4       0.0       0.0       0.0       0.0
 5 C  py              0.0       0.2       0.1       0.0       0.0       0.0
 5 C  dxy             0.0       0.0       0.2       0.0       0.0       0.0
 5 C  f+3             0.0       0.1       0.1       0.0       0.0       0.0
 6 O  s               1.9       1.1       2.9       0.0       0.0       0.0
 6 O  px              2.3       1.8       0.9       0.0       0.0       0.0
 6 O  py              1.8       0.8       0.0       0.0       0.0       0.0
 6 O  dz2            39.1       9.6       5.7       0.0       0.0       0.0
 6 O  dx2y2          19.7       0.7      48.0       0.0       0.0       0.0
 6 O  dxy            12.6      70.6       0.2       0.0       0.0       0.0
 6 O  f+1             1.8       2.8       2.9       0.0       0.0       0.0
 6 O  f-1             5.7       1.1       0.2       0.0       0.0       0.0
 6 O  f+3             5.7       3.6       4.4       0.0       0.0       0.0
 6 O  f-3             0.1       0.1      19.6       0.0       0.0       0.0
 7 Cl s               0.0       0.0       0.0       0.0       0.0       0.9
 7 Cl pz              0.0       0.0       0.0      99.9       0.0       0.0
 7 Cl px              0.0       0.0       0.0       0.0       0.5      96.5
 7 Cl py              0.0       0.0       0.0       0.0      98.9       0.5
 7 Cl dx2y2           0.0       0.0       0.0       0.0       0.0       0.1
12 H  s               2.2       0.2       6.5       0.0       0.0       0.0
12 H  px              0.3       0.0       0.4       0.0       0.0       0.0
12 H  py              0.0       0.1       0.0       0.0       0.0       0.0

                    276       277       278       279       280       281   
                  20.34583  20.98878  21.04621  21.09758  21.20628  21.60257
                   0.00000   0.00000   0.00000   0.00000   0.00000   0.00000
                  --------  --------  --------  --------  --------  --------
 0 C  s              17.0      30.0      24.8       2.7      17.0       6.6
 0 C  py              0.0       0.2       0.4       0.1       0.0       0.0
 0 C  dxy             0.0       0.0       0.1       0.0       0.0       0.0
 1 C  s              16.0      32.3      31.2       0.1      10.6       7.8
 1 C  px              0.0       0.2       0.2       0.0       0.0       0.0
 1 C  py              0.1       0.1       0.1       0.0       0.0       0.0
 1 C  dx2y2           0.0       0.1       0.1       0.0       0.0       0.0
 2 C  s              16.1       9.4      24.7       9.3      30.7       7.8
 2 C  px              0.0       0.4       0.1       0.1       0.0       0.0
 3 C  s              22.1      20.4       0.6      43.9       0.0      11.0
 3 C  px              0.0       0.0       0.0       0.1       0.0       0.0
 3 C  py              0.0       0.0       0.4       0.0       0.5       0.0
 3 C  dx2y2           0.0       0.0       0.0       0.0       0.0       0.1
 3 C  dxy             0.0       0.0       0.1       0.0       0.2       0.0
 4 C  s               8.7       2.4       0.2       0.1      35.5      50.6
 4 C  px              0.1       0.1       0.2       0.3       0.0       0.0
 4 C  py              0.2       0.1       0.1       0.1       0.0       0.0
 4 C  dx2y2           0.0       0.0       0.1       0.2       0.0       0.0
 5 C  s              18.6       3.0      16.1      41.9       4.1      14.3
 5 C  px              0.0       0.3       0.0       0.0       0.2       0.0
 6 O  s               0.2       0.0       0.0       0.0       0.1       0.2
 6 O  py              0.1       0.0       0.0       0.0       0.1       0.2
 7 Cl s               0.0       0.2       0.0       0.4       0.0       0.1

                    282       283   
                  24.65138  41.56029
                   0.00000   0.00000
                  --------  --------
 2 C  px              0.2       0.0
 3 C  s               0.5       0.0
 3 C  px              0.6       0.0
 3 C  dx2y2           0.6       0.0
 4 C  s               0.1       0.0
 4 C  px              0.2       0.0
 4 C  dxy             0.1       0.0
 6 O  s               0.0      99.7
 7 Cl s              96.6       0.0
 7 Cl px              0.4       0.0


                      *****************************
                      * MAYER POPULATION ANALYSIS *
                      *****************************

  NA   - Mulliken gross atomic population
  ZA   - Total nuclear charge
  QA   - Mulliken gross atomic charge
  VA   - Mayer's total valence
  BVA  - Mayer's bonded valence
  FA   - Mayer's free valence

  ATOM       NA         ZA         QA         VA         BVA        FA
  0 C      6.0954     6.0000    -0.0954     3.9606     3.9606    -0.0000
  1 C      6.1344     6.0000    -0.1344     3.9558     3.9558    -0.0000
  2 C      6.1760     6.0000    -0.1760     3.9673     3.9673     0.0000
  3 C      5.8874     6.0000     0.1126     3.6837     3.6837     0.0000
  4 C      5.8403     6.0000     0.1597     4.1346     4.1346     0.0000
  5 C      6.2017     6.0000    -0.2017     3.9472     3.9472     0.0000
  6 O      8.3748     8.0000    -0.3748     2.1069     2.1069    -0.0000
  7 Cl    17.1203    17.0000    -0.1203     1.1997     1.1997    -0.0000
  8 H      0.8760     1.0000     0.1240     0.9686     0.9686    -0.0000
  9 H      0.8769     1.0000     0.1231     0.9699     0.9699    -0.0000
 10 H      0.8613     1.0000     0.1387     0.9717     0.9717    -0.0000
 11 H      0.8704     1.0000     0.1296     0.9826     0.9826     0.0000
 12 H      0.6850     1.0000     0.3150     0.9338     0.9338     0.0000

  Mayer bond orders larger than 0.100000
B(  0-C ,  1-C ) :   1.4209 B(  0-C ,  5-C ) :   1.4513 B(  0-C ,  8-H ) :   0.9713 
B(  1-C ,  2-C ) :   1.4362 B(  1-C ,  9-H ) :   0.9699 B(  2-C ,  3-C ) :   1.3723 
B(  2-C , 10-H ) :   0.9584 B(  3-C ,  4-C ) :   1.2909 B(  3-C ,  7-Cl) :   0.9518 
B(  4-C ,  5-C ) :   1.4061 B(  4-C ,  6-O ) :   1.2243 B(  5-C , 11-H ) :   0.9644 
B(  6-O , 12-H ) :   0.8631 

-------
TIMINGS
-------

Total SCF time: 0 days 0 hours 2 min 15 sec 

Total time                  ....     135.246 sec
Sum of individual times     ....     132.603 sec  ( 98.0%)

SCF preparation             ....       0.380 sec  (  0.3%)
Fock matrix formation       ....     130.227 sec  ( 96.3%)
  Startup                   ....       0.058 sec  (  0.0% of F)
  Split-RI-J                ....       5.439 sec  (  4.2% of F)
  Chain of spheres X        ....     109.759 sec  ( 84.3% of F)
  XC integration            ....      16.389 sec  ( 12.6% of F)
    XC Preparation          ....       0.000 sec  (  0.0% of XC)
    Basis function eval.    ....       3.101 sec  ( 18.9% of XC)
    Density eval.           ....       2.628 sec  ( 16.0% of XC)
    XC-Functional eval.     ....       2.871 sec  ( 17.5% of XC)
    XC-Potential eval.      ....       4.813 sec  ( 29.4% of XC)
Diagonalization             ....       0.000 sec  (  0.0%)
Density matrix formation    ....       0.230 sec  (  0.2%)
Total Energy calculation    ....       0.255 sec  (  0.2%)
Population analysis         ....       0.180 sec  (  0.1%)
Orbital Transformation      ....       0.080 sec  (  0.1%)
Orbital Orthonormalization  ....       0.000 sec  (  0.0%)
DIIS solution               ....       0.854 sec  (  0.6%)
  MO trafo                  ....       0.000 sec  (  0.0 % of DIIS)
  Orb grad                  ....       0.000 sec  (  0.0 % of DIIS)
  Energy W gradient         ....       0.000 sec  (  0.0 % of DIIS)
  DIIS error                ....       0.013 sec  (  1.6 % of DIIS)
  DIIS work                 ....       0.790 sec  ( 92.5 % of DIIS)
  Form Q                    ....       0.000 sec  (  0.0 % of DIIS)
  Form QpQm                 ....       0.000 sec  (  0.0 % of DIIS)
  Exp/Cayley                ....       0.000 sec  (  0.0 % of DIIS)
  Orb update                ....       0.000 sec  (  0.0 % of DIIS)
  Wake-sleep                ....       0.012 sec  (  1.5 % of DIIS)
SOSCF solution              ....       0.217 sec  (  0.2%)
  MO trafo                  ....       0.090 sec  ( 41.6 % of SOSCF)
  Orb grad                  ....       0.003 sec  (  1.5 % of SOSCF)
  Rot update                ....       0.057 sec  ( 26.1 % of SOSCF)
  Step                      ....       0.067 sec  ( 30.8 % of SOSCF)
Grid generation             ....       0.180 sec  (  0.1%)
Finished LeanSCF after 135.4 sec

Maximum memory used throughout the entire LEANSCF-calculation: 36.1 MB
------------------   -----------------
gCP correction             0.006818188
------------------   -----------------

-------------------------   --------------------
FINAL SINGLE POINT ENERGY      -767.035419123671
-------------------------   --------------------


------------------------------------------------------------------------------
                              ORCA PROPERTY CALCULATIONS
------------------------------------------------------------------------------

GBWName                                 ... sp_gas.gbw
Number of atoms                         ...     13
Number of basis functions               ...    284
Max core memory                         ...   1024 MB

Electric properties:
Dipole moment                           ... YES
Quadrupole moment                       ...  NO
Static polarizability (Dipole/Dipole)   ...  NO
Static polarizability (Dipole/Quad.)    ...  NO
Static polarizability (Quad./Quad.)     ...  NO
Static polarizability (Velocity)        ...  NO

Atomic electric properties:
Dipole moment                           ...  NO
Quadrupole moment                       ...  NO
Static polarizability                   ...  NO

Choice of electric origin               ... Center of mass
Position of electric origin             ...     0.008163    -0.001104    -0.000075

General magnetic properties:
Magnetizability                         ...  NO

EPR properties:
g-Tensor (aka g-matrix)                 ...  NO
Zero-Field splitting spin-orbit         ...  NO
Zero-field splitting spin-spin          ...  NO
Hyperfine couplings                     ...  NO (   0 nuclei)
Quadrupole couplings                    ...  NO (   0 nuclei)
Contact density                         ...  NO (   0 nuclei)

NMR properties:
Chemical shifts                         ...  NO (   0 nuclei)
Spin-rotation constants                 ...  NO (   0 nuclei)
Spin-spin couplings                     ...  NO (   0 nuclei,    0 pairs)

Choice of magnetic origin               ... GIAO
Position of magnetic origin             ...     0.000000     0.000000     0.000000

Properties with geometric perturbations:
SCF Hessian                             ...  NO
IR spectrum                             ...  NO
VCD spectrum                            ...  NO
X-ray spectroscopy properties:
SCF XES/XAS/RIXS spectra                ...  NO


-------------
DIPOLE MOMENT
-------------

Method             : SCF
Type of density    : Electron Density
Multiplicity       :   1
Irrep              :   0
Energy             :  -767.0422373116712151 Eh
Relativity type    : 
Basis              : AO
                                X                 Y                 Z
Electronic contribution:      8.700448294      -0.288433840       0.000598608
Nuclear contribution   :     -8.963851919       0.006663897      -0.000635394
                        -----------------------------------------
Total Dipole Moment    :     -0.263403626      -0.281769943      -0.000036787
                        -----------------------------------------
Magnitude (a.u.)       :      0.385714625
Magnitude (Debye)      :      0.980408662



--------------------
Rotational spectrum 
--------------------
 
Rotational constants in cm-1:             0.098504             0.050977             0.033592 
Rotational constants in MHz :          2953.075624          1528.244069          1007.073946 

Dipole components along the rotational axes: 
x,y,z [a.u.] :     0.263474    -0.281705    -0.000022 
x,y,z [Debye]:     0.669696    -0.716036    -0.000055 

 

Dipole moment calculation done in   0.0 sec 

Maximum memory used throughout the entire PROP-calculation: 23.0 MB

--------------------------------
SUGGESTED CITATIONS FOR THIS RUN
--------------------------------

Below you find a list of papers that are relevant to this ORCA run
We neither can nor want to force you to cite these papers, but we appreciate if you do
You receive ORCA, which is the product of decades of hard work by many enthusiastic individuals, for free
The only thing we kindly ask in return is that you cite our papers,
We deeply appreciate it, if you show your appreciation for ORCA by not just citing the generic ORCA reference.

Please note that relegating all ORCA citations to the supporting information does *not* help us.
SI sections are not indexed - citations you put there will not count into any citation statistics
But we need these citations in order to attract the funding resources that allow us to do what we are doing

Therefore, if you are a happy ORCA user, please consider citing a few of the papers listed below in the main body of your paper

In addition to the list printed below, the program has created the file sp_gas.bibtex that contains the list in bibtex format
You can import this file easily into all common literature databanks and citation aid programs


List of essential papers. We consider these as the minimum necessary citations

  1. Neese,F.
     Software update: the ORCA program system, version 5.0
     WIRES Comput. Molec. Sci., 2022 12(1)e1606
     doi.org/10.1002/wcms.1606

List of papers to cite with high priority. The work reported in these papers was absolutely
necessary for this run to complete.
Our perspective: the developers of density functionals and basis sets usually get cited in chemistry papers
Good! But without the algorithms to do something with them, the functionals or basis sets would not do anything.
Hence, in our opinion, the algorithm design and method developments papers are equally worthy of getting cited

  1. Neese,F.
     An improvement of the resolution of the identity approximation for the formation of the Coulomb matrix
     J. Comp. Chem., 2003 24(14)1740-1747
     doi.org/10.1002/jcc.10318
  2. Neese,F.; Wennmohs,F.; Hansen,A.; Becker,U.
     Efficient, approximate and parallel Hartree-Fock and hybrid DFT calculations. A 'chain-of-spheres' algorithm for the Hartree-Fock exchange
     Chem. Phys., 2009 356(1-3)98-109
     doi.org/10.1016/j.chemphys.2008.10.036
  3. Helmich-Paris,B.; de Souza,B.; Neese,F.; Izsák,R.
     An improved chain of spheres for exchange algorithm
     J. Chem. Phys., 2021 155 104109
     doi.org/doi: 10.1063/5.0058766.
  4. Neese,F.
     The SHARK Integral Generation and Digestion System
     J. Comp. Chem., 2022  1-16
     doi.org/10.1002/jcc.26942

List of suggested additional citations. These are papers that are important in the 'surrounding' of 
of this run, or papers that preceded the highly important papers. If you like your results we are grateful for a citation.

  1. Izsak,R.; Neese,F.
     An overlap fitted chain of spheres exchange method
     J. Chem. Phys., 2011 135 144105
     doi.org/10.1063/1.3646921
  2. Izsak,R.; Hansen,A.; Neese,F.
     The resolution of identity and chain of spheres approximations for the LPNO-CCSD singles Fock term
     Molec. Phys., 2012 110 2413-2417
     doi.org/10.1080/00268976.2012.687466
  3. Neese,F.
     The ORCA program system
     WIRES Comput. Molec. Sci., 2012 2(1)73-78
     doi.org/10.1002/wcms.81
  4. Izsak,R.; Neese,F.; Klopper,W.
     Robust fitting techniques in the chain of spheres approximation to the Fock exchange: The role of the complementary space
     J. Chem. Phys., 2013 139 
     doi.org/10.1063/1.4819264
  5. Neese,F.
     Software update: the ORCA program system, version 4.0
     WIRES Comput. Molec. Sci., 2018 8(1)1-6
     doi.org/10.1002/wcms.1327
  6. Neese,F.; Wennmohs,F.; Becker,U.; Riplinger,C.
     The ORCA quantum chemistry program package
     J. Chem. Phys., 2020 152 Art. No. L224108
     doi.org/10.1063/5.0004608

List of optional additional citations

  1. Neese,F.
     Approximate second-order SCF convergence for spin unrestricted wavefunctions
     Chem. Phys. Lett., 2000 325(1-3)93-98
     doi.org/10.1016/s0009-2614(00)00662-x

Timings for individual modules:

Sum of individual times          ...      138.375 sec (=   2.306 min)
Startup calculation              ...        2.479 sec (=   0.041 min)   1.8 %
SCF iterations                   ...      135.773 sec (=   2.263 min)  98.1 %
Property calculations            ...        0.122 sec (=   0.002 min)   0.1 %
                             ****ORCA TERMINATED NORMALLY****
TOTAL RUN TIME: 0 days 0 hours 2 minutes 19 seconds 197 msec
