
                                 *****************
                                 * O   R   C   A *
                                 *****************

                                            #,                                       
                                            ###                                      
                                            ####                                     
                                            #####                                    
                                            ######                                   
                                           ########,                                 
                                     ,,################,,,,,                         
                               ,,#################################,,                 
                          ,,##########################################,,             
                       ,#########################################, ''#####,          
                    ,#############################################,,   '####,        
                  ,##################################################,,,,####,       
                ,###########''''           ''''###############################       
              ,#####''   ,,,,##########,,,,          '''####'''          '####       
            ,##' ,,,,###########################,,,                        '##       
           ' ,,###''''                  '''############,,,                           
         ,,##''                                '''############,,,,        ,,,,,,###''
      ,#''                                            '''#######################'''  
     '                                                          ''''####''''         
             ,#######,   #######,   ,#######,      ##                                
            ,#'     '#,  ##    ##  ,#'     '#,    #''#        ,####,   ,####,        
            ##       ##  ##   ,#'  ##            #'  '#       #'       #'  '#        
            ##       ##  #######   ##           ,######,      #####,   #    #        
            '#,     ,#'  ##    ##  '#,     ,#' ,#      #,     #,   #   #,  ,#        
             '#######'   ##     ##  '#######'  #'      '#     '####' # '####'        



                #########################################################
                #                        -***-                          #
                #          Department of theory and spectroscopy        #
                #                                                       #
                #                      Frank Neese                      #
                #                                                       #
                #     Directorship, Architecture, Infrastructure        #
                #                    SHARK, DRIVERS                     #
                #        Core code/Algorithms in most modules           #
                #                                                       #
                #        Max Planck Institute fuer Kohlenforschung      #
                #                Kaiser Wilhelm Platz 1                 #
                #                 D-45470 Muelheim/Ruhr                 #
                #                      Germany                          #
                #                                                       #
                #                  All rights reserved                  #
                #                        -***-                          #
                #########################################################


                         Program Version 6.0.0  -   RELEASE  -


 With contributions from (in alphabetic order):
   Daniel Aravena         : Magnetic Suceptibility
   Michael Atanasov       : Ab Initio Ligand Field Theory (pilot matlab implementation)
   Alexander A. Auer      : GIAO ZORA, VPT2 properties, NMR spectrum
   Ute Becker             : All parallelization in ORCA, NUMFREQ, NUMCALC
   Giovanni Bistoni       : ED, misc. LED, open-shell LED, HFLD
   Martin Brehm           : Molecular dynamics
   Dmytro Bykov           : pre 5.0 version of the SCF Hessian
   Marcos Casanova-Páez   : Triplet and SCS-CIS(D). UHF-(DLPNO)-IP/EA/STEOM-CCSD. UHF-CVS-IP/STEOM-CCSD
   Vijay G. Chilkuri      : MRCI spin determinant printing, contributions to CSF-ICE
   Pauline Colinet        : FMM embedding
   Dipayan Datta          : RHF DLPNO-CCSD density
   Achintya Kumar Dutta   : EOM-CC, STEOM-CC
   Nicolas Foglia         : Exact transition moments, OPA infrastructure, MCD improvements
   Dmitry Ganyushin       : Spin-Orbit,Spin-Spin,Magnetic field MRCI
   Miquel Garcia          : C-PCM and meta-GGA Hessian, CCSD/C-PCM, Gaussian charge scheme
   Tiago L. C. Gouveia    : GS-ROHF, GS-ROCIS
   Yang Guo               : DLPNO-NEVPT2, F12-NEVPT2, CIM, IAO-localization
   Andreas Hansen         : Spin unrestricted coupled pair/coupled cluster methods
   Ingolf Harden          : AUTO-CI MPn and infrastructure 
   Benjamin Helmich-Paris : MC-RPA, TRAH-(SCF,CASSCF), AVAS, COSX integrals, SCF dyn. polar.
   Lee Huntington         : MR-EOM, pCC
   Robert Izsak           : Overlap fitted RIJCOSX, COSX-SCS-MP3, EOM
   Riya Kayal             : Wick's Theorem for AUTO-CI, AUTO-CI UHF-CCSDT
   Emily Kempfer          : AUTO-CI, RHF CISDT and CCSDT
   Christian Kollmar      : KDIIS, OOCD, Brueckner-CCSD(T), CCSD density, CASPT2, CASPT2-K, improved NEVPT2
   Axel Koslowski         : Symmetry handling
   Simone Kossmann        : Meta GGA functionals, TD-DFT gradient, OOMP2, (MP2 Hessian; deprecated post 5.0)
   Lucas Lang             : DCDCAS
   Marvin Lechner         : AUTO-CI (C++ implementation), FIC-MRCC
   Spencer Leger          : CASSCF response
   Dagmar Lenk            : GEPOL surface, SMD, ORCA-2-JSON
   Dimitrios Liakos       : Extrapolation schemes; Compound Job, initial MDCI parallelization
   Dimitrios Manganas     : Further ROCIS development; embedding schemes. LFT, Crystal Embedding
   Dimitrios Pantazis     : SARC Basis sets
   Anastasios Papadopoulos: AUTO-CI, single reference methods and gradients
   Taras Petrenko         : pre 6.0 DFT Hessian and TD-DFT gradient, (ASA, deprecated), ECA, 1-Electron XAS/XES, NRVS
   Peter Pinski           : DLPNO-MP2, DLPNO-MP2 Gradient
   Christoph Reimann      : Effective Core Potentials
   Marius Retegan         : Local ZFS, SOC
   Christoph Riplinger    : Optimizer, TS searches, QM/MM, DLPNO-CCSD(T), (RO)-DLPNO pert. Triples
   Michael Roemelt        : Original ROCIS implementation
   Masaaki Saitow         : Open-shell DLPNO-CCSD energy and density
   Barbara Sandhoefer     : DKH picture change effects
   Kantharuban Sivalingam : CASSCF convergence/infrastructure, NEVPT2 and variants, FIC-MRCI
   Bernardo de Souza      : ESD, SOC TD-DFT
   Georgi Stoychev        : AutoAux, RI-MP2 NMR, DLPNO-MP2 response, X2C
   Van Anh Tran           : RI-MP2 g-tensors
   Willem Van den Heuvel  : Paramagnetic NMR
   Zikuan Wang            : NOTCH, Electric field optimization 
   Frank Wennmohs         : Technical directorship and infrastructure
   Hang Xu                : AUTO-CI-Response properties 


 We gratefully acknowledge several colleagues who have allowed us to
 interface, adapt or use parts of their codes:
   Stefan Grimme, W. Hujo, H. Kruse, P. Pracht,  : VdW corrections, initial TS optimization,
                  C. Bannwarth, S. Ehlert,         DFT functionals, gCP, sTDA/sTD-DF
                  L. Wittmann, M. Mueller
   Ed Valeev, F. Pavosevic, A. Kumar             : LibInt (2-el integral package), F12 methods
   Garnet Chan, S. Sharma, J. Yang, R. Olivares  : DMRG
   Ulf Ekstrom                                   : XCFun DFT Library
   Mihaly Kallay                                 : mrcc  (arbitrary order and MRCC methods)
   Frank Weinhold                                : gennbo (NPA and NBO analysis)
   Simon Mueller                                 : openCOSMO-RS
   Christopher J. Cramer and Donald G. Truhlar   : smd solvation model
   Lars Goerigk                                  : TD-DFT with DH, B97 family of functionals
   V. Asgeirsson, H. Jonsson                     : NEB implementation
   FAccTs GmbH                                   : IRC, NEB, NEB-TS, DLPNO-Multilevel, CI-OPT
                                                   MM, QMMM, 2- and 3-layer-ONIOM, Crystal-QMMM,
                                                   LR-CPCM, SF, NACMEs, symmetry and pop. for TD-DFT,
                                                   nearIR, NL-DFT gradient (VV10), updates on ESD,
                                                   ML-optimized integration grids, MBIS, APM,
                                                   GOAT, DOCKER, SOLVATOR, interface openCOSMO-RS
   S Lehtola, MJT Oliveira, MAL Marques          : LibXC Library
   Liviu Ungur et al                             : ANISO software


 Your calculation uses the libint2 library for the computation of 2-el integrals
 For citations please refer to: http://libint.valeyev.net

 Your ORCA version has been built with support for libXC version: 6.2.2
 For citations please refer to: https://libxc.gitlab.io

 This ORCA versions uses:
   CBLAS   interface :  Fast vector & matrix operations
   LAPACKE interface :  Fast linear algebra routines
   SCALAPACK package :  Parallel linear algebra routines
   Shared memory     :  Shared parallel matrices
   BLAS/LAPACK       :  OpenBLAS 0.3.27  USE64BITINT DYNAMIC_ARCH NO_AFFINITY SkylakeX SINGLE_THREADED
        Core in use  :  SkylakeX
   Copyright (c) 2011-2014, The OpenBLAS Project


Your calculation utilizes the geometrical counterpoise correction gCP
Please cite in your paper:
H.Kruse, S. Grimme J.Chem.Phys., 136, (2012), 154101 
   

Your calculation utilizes the DFT-NL dispersion correction.
Cite in your paper:
Vydrov, O. A.; Van Voorhis, T. J. Chem. Phys. 2010, 133, 244103
Hujo, W.; Grimme, S. J. Chem. Theory Comput. 2011, 7, 3866 
   

Your calculation utilizes the SMD solvation module
Please cite in your paper:
A.V. Marenich, C.J. Cramer, D.G. Truhlar J. Phys. Chem. B, 113, (2009), 6378 

================================================================================

----- Orbital basis set information -----
Your calculation utilizes the basis: def2-TZVP
   F. Weigend and R. Ahlrichs, Phys. Chem. Chem. Phys. 7, 3297 (2005).

----- AuxJ basis set information -----
Your calculation utilizes the auxiliary basis: def2/J
   F. Weigend, Phys. Chem. Chem. Phys. 8, 1057 (2006).

================================================================================
                                        WARNINGS
                       Please study these warnings very carefully!
================================================================================


================================================================================
                                       INPUT FILE
================================================================================
NAME = sp_solv.inp
|  1> ! wb97x-v def2-tzvp def2/J RIJCOSX DEFGRID2 scfconv7 GCP(DFT/TZ) printgap
|  2> %output
|  3>     printlevel normal
|  4> end
|  5> %cpcm
|  6>     smd true
|  7>     smdsolvent "water"
|  8> end
|  9> * xyz 0 1
| 10> C -2.419097036260352 -0.07755586056133543 -0.00018965245913778737
| 11> C -1.846780342135505 -1.3483991260846726 -0.00015743779292246411
| 12> C -0.46211628905966473 -1.481682740494972 -6.521983663645468e-05
| 13> C 0.3318899480409741 -0.34266451527478275 -1.4769045235715475e-05
| 14> C -0.22871177190713776 0.9388366973645476 -5.621366837179319e-05
| 15> C -1.6189127881229013 1.0572308803290529 -0.00013927234042776287
| 16> O 0.5110639384125414 2.0874510404839146 -2.87478847956544e-05
| 17> Cl 2.0868826196934522 -0.49815551143347847 9.946929984600819e-05
| 18> H -3.498243147053145 0.033811407616143416 -0.0002616074640711382
| 19> H -2.469588594129455 -2.2359939076813733 -0.00020730371093593818
| 20> H 0.0022690939476222483 -2.4616027579226745 -4.0707367741641936e-05
| 21> H -2.052306630037507 2.052001366569013 -0.00017474500792541924
| 22> H 1.4563619906523366 1.8711971960076401 7.8279209673392e-06
| 23> *
| 24> 
| 25>                          ****END OF INPUT****
================================================================================

                       ****************************
                       * Single Point Calculation *
                       ****************************

---------------------------------
CARTESIAN COORDINATES (ANGSTROEM)
---------------------------------
  C     -2.419097   -0.077556   -0.000190
  C     -1.846780   -1.348399   -0.000157
  C     -0.462116   -1.481683   -0.000065
  C      0.331890   -0.342665   -0.000015
  C     -0.228712    0.938837   -0.000056
  C     -1.618913    1.057231   -0.000139
  O      0.511064    2.087451   -0.000029
  Cl     2.086883   -0.498156    0.000099
  H     -3.498243    0.033811   -0.000262
  H     -2.469589   -2.235994   -0.000207
  H      0.002269   -2.461603   -0.000041
  H     -2.052307    2.052001   -0.000175
  H      1.456362    1.871197    0.000008

----------------------------
CARTESIAN COORDINATES (A.U.)
----------------------------
  NO LB      ZA    FRAG     MASS         X           Y           Z
   0 C     6.0000    0    12.011   -4.571431   -0.146559   -0.000358
   1 C     6.0000    0    12.011   -3.489909   -2.548105   -0.000298
   2 C     6.0000    0    12.011   -0.873273   -2.799975   -0.000123
   3 C     6.0000    0    12.011    0.627181   -0.647542   -0.000028
   4 C     6.0000    0    12.011   -0.432203    1.774144   -0.000106
   5 C     6.0000    0    12.011   -3.059302    1.997877   -0.000263
   6 O     8.0000    0    15.999    0.965771    3.944711   -0.000054
   7 Cl   17.0000    0    35.453    3.943637   -0.941377    0.000188
   8 H     1.0000    0     1.008   -6.610721    0.063894   -0.000494
   9 H     1.0000    0     1.008   -4.666846   -4.225416   -0.000392
  10 H     1.0000    0     1.008    0.004288   -4.651755   -0.000077
  11 H     1.0000    0     1.008   -3.878297    3.877721   -0.000330
  12 H     1.0000    0     1.008    2.752125    3.536050    0.000015

--------------------------------
INTERNAL COORDINATES (ANGSTROEM)
--------------------------------
 C      0   0   0     0.000000000000     0.00000000     0.00000000
 C      1   0   0     1.393767916454     0.00000000     0.00000000
 C      2   1   0     1.391064006527   119.74231683     0.00000000
 C      3   2   1     1.388455409613   119.38205808     0.00000000
 C      4   3   2     1.398756464908   121.49244953     0.00000000
 C      1   2   3     1.388537281029   120.56664504     0.00000000
 O      5   4   3     1.366229487148   123.58875311   180.00097138
 Cl     4   3   2     1.761867401506   119.81709778   180.00009807
 H      1   2   3     1.084877413369   120.13617006   179.99999266
 H      2   1   3     1.084303747829   120.69926056   180.00023277
 H      3   2   1     1.084387857322   120.85451552   180.00011545
 H      6   1   2     1.085079971137   121.26936287   179.99931198
 H      7   5   4     0.969718585032   109.89823658     0.00000000

---------------------------
INTERNAL COORDINATES (A.U.)
---------------------------
 C      0   0   0     0.000000000000     0.00000000     0.00000000
 C      1   0   0     2.633839656345     0.00000000     0.00000000
 C      2   1   0     2.628730007091   119.74231683     0.00000000
 C      3   2   1     2.623800473330   119.38205808     0.00000000
 C      4   3   2     2.643266646728   121.49244953     0.00000000
 C      1   2   3     2.623955187884   120.56664504     0.00000000
 O      5   4   3     2.581799566798   123.58875311   180.00097138
 Cl     4   3   2     3.329446873130   119.81709778   180.00009807
 H      1   2   3     2.050121200144   120.13617006   179.99999266
 H      2   1   3     2.049037129381   120.69926056   180.00023277
 H      3   2   1     2.049196073288   120.85451552   180.00011545
 H      6   1   2     2.050503978851   121.26936287   179.99931198
 H      7   5   4     1.832502552685   109.89823658     0.00000000

---------------------
BASIS SET INFORMATION
---------------------
There are 4 groups of distinct atoms

 Group   1 Type C   : 11s6p2d1f contracted to 5s3p2d1f pattern {62111/411/11/1}
 Group   2 Type O   : 11s6p2d1f contracted to 5s3p2d1f pattern {62111/411/11/1}
 Group   3 Type Cl  : 14s9p3d1f contracted to 5s5p2d1f pattern {73211/51111/21/1}
 Group   4 Type H   : 5s1p contracted to 3s1p pattern {311/1}

Atom   0C    basis set group =>   1
Atom   1C    basis set group =>   1
Atom   2C    basis set group =>   1
Atom   3C    basis set group =>   1
Atom   4C    basis set group =>   1
Atom   5C    basis set group =>   1
Atom   6O    basis set group =>   2
Atom   7Cl   basis set group =>   3
Atom   8H    basis set group =>   4
Atom   9H    basis set group =>   4
Atom  10H    basis set group =>   4
Atom  11H    basis set group =>   4
Atom  12H    basis set group =>   4
---------------------------------
AUXILIARY/J BASIS SET INFORMATION
---------------------------------
There are 4 groups of distinct atoms

 Group   1 Type C   : 12s5p4d2f1g contracted to 6s4p3d1f1g pattern {711111/2111/211/2/1}
 Group   2 Type O   : 12s5p4d2f1g contracted to 6s4p3d1f1g pattern {711111/2111/211/2/1}
 Group   3 Type Cl  : 14s5p5d2f1g contracted to 8s4p3d1f1g pattern {71111111/2111/311/2/1}
 Group   4 Type H   : 5s2p1d contracted to 3s1p1d pattern {311/2/1}

Atom   0C    basis set group =>   1
Atom   1C    basis set group =>   1
Atom   2C    basis set group =>   1
Atom   3C    basis set group =>   1
Atom   4C    basis set group =>   1
Atom   5C    basis set group =>   1
Atom   6O    basis set group =>   2
Atom   7Cl   basis set group =>   3
Atom   8H    basis set group =>   4
Atom   9H    basis set group =>   4
Atom  10H    basis set group =>   4
Atom  11H    basis set group =>   4
Atom  12H    basis set group =>   4

Checking for AutoStart:
The File: sp_solv.gbw exists
Trying to determine its content:
     ... Fine, the file contains calculation information
     ... Fine, the calculation information was read
     ... Fine, the file contains a basis set
     ... Fine, the basis set was read
     ... Fine, the file contains a geometry
     ... Fine, the geometry was read
     ... Fine, the file contains a set of orbitals
     ... Fine, the orbitals can be read
     => possible old guess file was deleted
     => GBW file was renamed to GES file
     => GES file is set as startup file
     => Guess is set to MORead
     ... now leaving AutoStart

------------------------------------------------------------------------------
                             ORCA STARTUP CALCULATIONS
                           -- RI-GTO INTEGRALS CHOSEN --
------------------------------------------------------------------------------
------------------------------------------------------------------------------
                   ___                                                        
                  /   \      - P O W E R E D   B Y -                         
                 /     \                                                     
                 |  |  |   _    _      __       _____    __    __             
                 |  |  |  | |  | |    /  \     |  _  \  |  |  /  |          
                  \  \/   | |  | |   /    \    | | | |  |  | /  /          
                 / \  \   | |__| |  /  /\  \   | |_| |  |  |/  /          
                |  |  |   |  __  | /  /__\  \  |    /   |      \           
                |  |  |   | |  | | |   __   |  |    \   |  |\   \          
                \     /   | |  | | |  |  |  |  | |\  \  |  | \   \       
                 \___/    |_|  |_| |__|  |__|  |_| \__\ |__|  \__/        
                                                                              
                      - O R C A' S   B I G   F R I E N D -                    
                                      &                                       
                       - I N T E G R A L  F E E D E R -                       
                                                                              
 v1 FN, 2020, v2 2021, v3 2022-2024                                           
------------------------------------------------------------------------------


----------------------
SHARK INTEGRAL PACKAGE
----------------------

Number of atoms                             ...     13
Number of basis functions                   ...    284
Number of shells                            ...    110
Maximum angular momentum                    ...      3
Integral batch strategy                     ... SHARK/LIBINT Hybrid
RI-J (if used) integral strategy            ... SPLIT-RIJ (Revised 2003 algorithm where possible)
Printlevel                                  ...      1
Contraction scheme used                     ... SEGMENTED contraction
Prescreening option                         ... SCHWARTZ
   Thresh                                   ... 3.000e-11
   Tcut                                     ... 1.000e-12
   Tpresel                                  ... 1.000e-12 
Coulomb Range Separation                    ... NOT USED
Exchange Range Separation                   ... Long Range
   Mu parameter                             ... 3.000e-01
   Scaling (regular/separated)              ... 1.670e-01 8.330e-01
Multipole approximations                    ... NOT USED
Finite Nucleus Model                        ... NOT USED
CABS basis                                  ... NOT available
Auxiliary Coulomb fitting basis             ... AVAILABLE
   # of basis functions in Aux-J            ...    449
   # of shells in Aux-J                     ...    147
   Maximum angular momentum in Aux-J        ...      4
Auxiliary J/K fitting basis                 ... NOT available
Auxiliary Correlation fitting basis         ... NOT available
Auxiliary 'external' fitting basis          ... NOT available

Checking pre-screening integrals            ... done (  0.0 sec) Dimension = 110
Check shell pair data                       ... done (  0.0 sec)
Shell pair information
Shell pair cut-off parameter TPreSel        ...   1.0e-12
Total number of shell pairs                 ...      6105
Shell pairs after pre-screening             ...      5632
Total number of primitive shell pairs       ...     19708
Primitive shell pairs kept                  ...     13559
          la=0 lb=0:   1342 shell pairs
          la=1 lb=0:   1570 shell pairs
          la=1 lb=1:    470 shell pairs
          la=2 lb=0:    835 shell pairs
          la=2 lb=1:    476 shell pairs
          la=2 lb=2:    132 shell pairs
          la=3 lb=0:    407 shell pairs
          la=3 lb=1:    237 shell pairs
          la=3 lb=2:    127 shell pairs
          la=3 lb=3:     36 shell pairs

Calculating one electron integrals          ... done (  0.0 sec)
Calculating RI/J V-Matrix + Cholesky decomp.... done (  0.1 sec)
Calculating Nuclear repulsion               ... done (  0.0 sec) ENN=    405.109347692733 Eh

Diagonalization of the overlap matrix:
Smallest eigenvalue                        ... 1.055e-05
Time for diagonalization                   ...    0.008 sec
Threshold for overlap eigenvalues          ... 1.000e-07
Number of eigenvalues below threshold      ... 0
Time for construction of square roots      ...    0.019 sec
Total time needed                          ...    0.034 sec

-------------------
DFT GRID GENERATION
-------------------

General Integration Accuracy     IntAcc      ... 4.388
Radial Grid Type                 RadialGrid  ... OptM3 with GC (2021)
Angular Grid (max. ang.)         AngularGrid ... 4 (Lebedev-302)
Angular grid pruning method      GridPruning ... 4 (adaptive)
Weight generation scheme         WeightScheme... mBecke (2022)
Basis function cutoff            BFCut       ... 1.0000e-11
Integration weight cutoff        WCut        ... 1.0000e-14
Partially contracted basis set               ... off
Rotationally invariant grid construction     ... off
Angular grids for H and He will be reduced by one unit

Total number of grid points                  ...    65583
Total number of batches                      ...     1031
Average number of points per batch           ...       63
Average number of grid points per atom       ...     5045

--------------------
COSX GRID GENERATION
--------------------

GRIDX 1
-------
General Integration Accuracy     IntAcc      ... 3.816
Radial Grid Type                 RadialGrid  ... OptM3 with GC (2021)
Angular Grid (max. ang.)         AngularGrid ... 1 (Lebedev-50)
Angular grid pruning method      GridPruning ... 4 (adaptive)
Weight generation scheme         WeightScheme... mBecke (2022)
Basis function cutoff            BFCut       ... 1.0000e-11
Integration weight cutoff        WCut        ... 1.0000e-14
Partially contracted basis set               ... on
Rotationally invariant grid construction     ... off
Angular grids for H and He will be reduced by one unit

Total number of grid points                  ...     9412
Total number of batches                      ...       78
Average number of points per batch           ...      120
Average number of grid points per atom       ...      724
UseSFitting                                  ... on

GRIDX 2
-------
General Integration Accuracy     IntAcc      ... 4.020
Radial Grid Type                 RadialGrid  ... OptM3 with GC (2021)
Angular Grid (max. ang.)         AngularGrid ... 2 (Lebedev-110)
Angular grid pruning method      GridPruning ... 4 (adaptive)
Weight generation scheme         WeightScheme... mBecke (2022)
Basis function cutoff            BFCut       ... 1.0000e-11
Integration weight cutoff        WCut        ... 1.0000e-14
Partially contracted basis set               ... on
Rotationally invariant grid construction     ... off
Angular grids for H and He will be reduced by one unit

Total number of grid points                  ...    18442
Total number of batches                      ...      150
Average number of points per batch           ...      122
Average number of grid points per atom       ...     1419
UseSFitting                                  ... on

GRIDX 3
-------
General Integration Accuracy     IntAcc      ... 4.338
Radial Grid Type                 RadialGrid  ... OptM3 with GC (2021)
Angular Grid (max. ang.)         AngularGrid ... 3 (Lebedev-194)
Angular grid pruning method      GridPruning ... 4 (adaptive)
Weight generation scheme         WeightScheme... mBecke (2022)
Basis function cutoff            BFCut       ... 1.0000e-11
Integration weight cutoff        WCut        ... 1.0000e-14
Partially contracted basis set               ... on
Rotationally invariant grid construction     ... off
Angular grids for H and He will be reduced by one unit

Total number of grid points                  ...    41214
Total number of batches                      ...      330
Average number of points per batch           ...      124
Average number of grid points per atom       ...     3170
UseSFitting                                  ... on
Initializing property integral containers    ... done (  0.0 sec)

SHARK setup successfully completed in   2.1 seconds

Maximum memory used throughout the entire STARTUP-calculation: 40.6 MB
-------------------------------------------------------------------------------
                                 ORCA GUESS
                   Start orbitals & Density for SCF / CASSCF
-------------------------------------------------------------------------------

------------
SCF SETTINGS
------------
Hamiltonian:
 Density Functional     Method          .... DFT(GTOs)
 Exchange Functional    Exchange        .... WB97X-V
 Correlation Functional Correlation     .... WB97X-V
 Gradients option       PostSCFGGA      .... off
 Hybrid DFT is turned on
   Fraction HF Exchange ScalHFX         ....  0.167000
   Scaling of DF-GGA-X  ScalDFX         ....  0.000000
   Scaling of DF-GGA-C  ScalDFC         ....  1.000000
   Scaling of DF-LDA-C  ScalLDAC        ....  1.000000
   Perturbative correction              ....  0.000000
 Long-range corrected/Screened/Range-Separated Hybrid DFT is turned on
   Amount of maximum screened exact exchange              ....  0.833000
   Range separation parameter mu (erf(mu*r12)/r12)        ....  0.300000
   NL short-range parameter             ....  6.000000
   NL long-range parameter              ....  0.010000
 RI-approximation to the Coulomb term is turned on
   Number of AuxJ basis functions       .... 449
   RIJ-COSX (HFX calculated with COS-X)).... on


General Settings:
 Integral files         IntName         .... sp_solv
 Hartree-Fock type      HFTyp           .... RHF
 Total Charge           Charge          ....    0
 Multiplicity           Mult            ....    1
 Number of Electrons    NEL             ....   66
 Basis Dimension        Dim             ....  284
 Nuclear Repulsion      ENuc            ....    405.1093476927 Eh

Convergence Acceleration:
 AO-DIIS                CNVDIIS         .... on
   Start iteration      DIISMaxIt       ....    12
   Startup error        DIISStart       ....  0.200000
   # of expansion vecs  DIISMaxEq       ....     5
   Bias factor          DIISBfac        ....   1.050
   Max. coefficient     DIISMaxC        ....  10.000
 MO-DIIS                CNVKDIIS        .... off
 Trust-Rad. Augm. Hess. CNVTRAH         .... auto
   Auto Start mean grad. ratio tolernc. ....  1.125000
   Auto Start start iteration           ....     1
   Auto Start num. interpolation iter.  ....    10
   Max. Number of Micro iterations      ....    24
   Max. Number of Macro iterations      .... Maxiter - #DIIS iter
   Number of Davidson start vectors     ....     2
   Converg. threshold    (grad. norm)   ....   1.000e-04
   Grad. Scal. Fac. for Micro threshold ....   0.100
   Minimum threshold for Micro iter.    ....   1.000e-02
   NR start threshold (gradient norm)   ....   1.000e-04
   Initial trust radius                 ....   0.400
   Minimum AH scaling param. (alpha)    ....   1.000
   Maximum AH scaling param. (alpha)    .... 1000.000
   Quad. conv. algorithm                .... NR
   White noise on init. David. guess    .... on
   Maximum white noise                  ....   0.010
   Pseudo random numbers                .... off
   Inactive MOs                         .... canonical
   Orbital update algorithm             .... Taylor
   Preconditioner                       .... Diag
   Full preconditioner red. dimension   ....   250
 SOSCF                  CNVSOSCF        .... on
   Start iteration      SOSCFMaxIt      ....   150
   Startup grad/error   SOSCFStart      ....  0.003300
   Hessian update       SOSCFHessUp     .... L-BFGS
 Level Shifting         CNVShift        .... on
   Level shift para.    LevelShift      ....    0.2500
   Turn off err/grad.   ShiftErr        ....    0.0010
 Zerner damping         CNVZerner       .... off
 Static damping         CNVDamp         .... on
   Fraction old density DampFac         ....    0.7000
   Max. Damping (<1)    DampMax         ....    0.9800
   Min. Damping (>=0)   DampMin         ....    0.0000
   Turn off err/grad.   DampErr         ....    0.1000

SCF Procedure:
 Maximum # iterations   MaxIter         ....   125
 SCF integral mode      SCFMode         .... Direct
   Integral package                     .... SHARK and LIBINT hybrid scheme
 Reset frequency        DirectResetFreq ....    20
 Integral Threshold     Thresh          ....  3.000e-11 Eh
 Primitive CutOff       TCut            ....  1.000e-12 Eh

Convergence Tolerance:
 Convergence Check Mode ConvCheckMode   .... Total+1el-Energy
 Convergence forced     ConvForced      .... 0
 Energy Change          TolE            ....  1.000e-07 Eh
 1-El. energy change                    ....  1.000e-04 Eh
 Orbital Gradient       TolG            ....  1.000e-04
 Orbital Rotation angle TolX            ....  1.000e-04
 DIIS Error             TolErr          ....  1.000e-07

---------------------
INITIAL GUESS: MOREAD
---------------------
Guess MOs are being read from file: sp_solv.ges
Input Geometry matches current geometry (good)
Atom 0: N(Shells)= 11 and 9 - projection required
Input basis set needs projection
NBasis(read)= 190
NBasis(calc)= 284
Basis set overlap was calculated
Using GuessMode=FMatrix for the initial guess
C*T matrix was formed
Effective Fockian was calculated
Effective Fockian was diagonalized
Initial density was built
                      ------------------
                      INITIAL GUESS DONE (   0.1 sec)
                      ------------------
             **** ENERGY FILE WAS UPDATED (sp_solv.en.tmp) ****
Finished Guess after   0.4 sec
Maximum memory used throughout the entire GUESS-calculation: 25.2 MB

-------------------------------------------------------------------------------------------
                                      ORCA LEAN-SCF
                              memory conserving SCF solver
-------------------------------------------------------------------------------------------

--------------------
CPCM SOLVATION MODEL
--------------------
CPCM parameters:
  Epsilon                                         ...      78.3550
  Refrac                                          ...       1.3328
  Rsolv                                           ...       1.3000
  Surface type                                    ... GAUSSIAN VDW
  Discretization scheme                           ... Constant charge density
    Threshold for H atoms                         ...       5.0000 (charges/Ang^2)
    Threshold for non-H atoms                     ...       5.0000 (charges/Ang^2)
  Epsilon function type                           ...         CPCM
Solvent:                                          ... WATER
SMD-CDS solvent descriptors:
  Soln                                            ...       1.3328
  Soln25                                          ...       1.3323
  Sola                                            ...       0.0000
  Solb                                            ...       0.0000
  Solg                                            ...       0.0000
  Solc                                            ...       0.0000
  Solh                                            ...       0.0000
Radii:
  Scheme                                          ... Element-dependent radii
  Radius for C  used is    3.4960 Bohr (=   1.8500 Ang.)
  Radius for O  used is    2.8724 Bohr (=   1.5200 Ang.)
  Radius for Cl used is    4.4975 Bohr (=   2.3800 Ang.)
  Radius for H  used is    2.2677 Bohr (=   1.2000 Ang.)
Calculating surface                               ...        done! (  0.0s)
Cavity surface points                             ...         1103
Cavity Volume                                     ...     927.4657
Cavity Surface-area                               ...     539.8993
Calculating surface distance matrix               ...        done! (  0.0s)
Performing Cholesky decomposition & store         ...        done! (  0.1s)
Overall time for CPCM initialization              ...                 0.1s

----------------------------------------D-I-I-S--------------------------------------------
Iteration    Energy (Eh)           Delta-E    RMSDP     MaxDP     DIISErr   Damp  Time(sec)
-------------------------------------------------------------------------------------------
               ***  Starting incremental Fock matrix formation  ***
    1    -767.2870118009493581     0.00e+00  1.82e-03  5.07e-02  6.94e-02  0.700  16.4
    2    -767.2928954115629949    -5.88e-03  1.58e-03  4.54e-02  5.03e-02  0.700   9.5
                               ***Turning on AO-DIIS***
    3    -767.2973039815892662    -4.41e-03  1.33e-03  4.00e-02  3.59e-02  0.700   9.1
    4    -767.3005377620581839    -3.23e-03  3.37e-03  1.08e-01  2.53e-02  0.000   9.5
                              *** Initializing SOSCF ***
---------------------------------------S-O-S-C-F--------------------------------------
Iteration    Energy (Eh)           Delta-E    RMSDP     MaxDP     MaxGrad    Time(sec)
--------------------------------------------------------------------------------------
    5    -767.3087272148347893    -8.19e-03  2.02e-04  8.90e-03  1.59e-03     9.0
               *** Restarting incremental Fock matrix formation ***
    6    -767.3087608285968599    -3.36e-05  8.98e-05  4.34e-03  6.58e-04    16.5
    7    -767.3087699702120972    -9.14e-06  7.44e-05  4.26e-03  1.94e-04    13.7
    8    -767.3087713458605776    -1.38e-06  1.37e-05  8.78e-04  1.01e-04    13.4
    9    -767.3087716490435923    -3.03e-07  3.76e-06  1.20e-04  4.62e-05    11.6
   10    -767.3087716975333024    -4.85e-08  3.66e-06  2.02e-04  1.35e-05    11.6
                 **** Energy Check signals convergence ****

               *****************************************************
               *                     SUCCESS                       *
               *           SCF CONVERGED AFTER  10 CYCLES          *
               *****************************************************


------------------
NL GRID GENERATION
------------------

General Integration Accuracy     IntAcc      ... 4.004
Radial Grid Type                 RadialGrid  ... OptM3 with GC (2021)
Angular Grid (max. ang.)         AngularGrid ... 2 (Lebedev-110)
Angular grid pruning method      GridPruning ... 4 (adaptive)
Weight generation scheme         WeightScheme... mBecke (2022)
Basis function cutoff            BFCut       ... 1.0000e-10
Integration weight cutoff        WCut        ... 1.0000e-14
Partially contracted basis set               ... off
Rotationally invariant grid construction     ... off
Angular grids for H and He will be reduced by one unit

Total number of grid points                  ...    21173
Total number of batches                      ...      337
Average number of points per batch           ...       62
Average number of grid points per atom       ...     1629
Final grid set up in    0.2 sec

-------------------------------------------------------------------------------
                    post-SCF DFT-NL dispersion correction                      
-------------------------------------------------------------------------------

SCF Energy:     -767.308771698 
NL    Energy:      0.256319013 
SC+NL Energy:   -767.052452684 
NL done in  :              2.0 sec
-------------------------------------------------------------------------------
Recomputing exchange energy using gridx3       ... done (   28.582 sec)
Old exchange energy                            :    -20.139239511 Eh
New exchange energy                            :    -20.139230749 Eh
Exchange energy change after final integration :      0.000008762 Eh
Total energy after final integration           :   -767.052443923 Eh

SMD CDS free energy correction energy :                 3.24822     Kcal/mol
Total Energy after SMD CDS correction =              -767.047267550 Eh
             **** ENERGY FILE WAS UPDATED (sp_solv.en.tmp) ****

----------------
TOTAL SCF ENERGY
----------------

Total Energy       :       -767.04726754996648 Eh          -20872.41728 eV

Components:
Nuclear Repulsion  :        405.10934769273285 Eh           11023.58578 eV
Electronic Energy  :      -1172.40665514041984 Eh          -31902.80699 eV
One Electron Energy:      -1854.72669456330800 Eh          -50469.67919 eV
Two Electron Energy:        682.32003942288816 Eh           18566.87219 eV
CPCM Dielectric    :         -0.01146424984640 Eh              -0.31196 eV
SMD CDS (Gcds)     :          0.00517637259593 Eh               0.14086 eV

Virial components:
Potential Energy   :      -1532.20847398400110 Eh          -41693.51223 eV
Kinetic Energy     :        765.16120643403474 Eh           20821.09495 eV
Virial Ratio       :          2.00246491994115

DFT components:
N(Alpha)           :       33.000025841838 electrons
N(Beta)            :       33.000025841838 electrons
N(Total)           :       66.000051683675 electrons
E(X)               :      -48.337688946606 Eh       
E(C)               :       -2.950318831793 Eh       
NL Energy, E(C,NL) :        0.256319013266 Eh       
E(XC)              :      -51.031688765133 Eh       

CPCM Solvation Model Properties:
Surface-charge          :         -0.03262994276734
Corrected charge        :         -0.00000000000000
Outlying charge corr.   :          0.00008201795216 Eh               0.00223 eV
Free-energy (cav+disp)  :          0.00517637259593 Eh               0.14086 eV

---------------
SCF CONVERGENCE
---------------

  Last Energy change         ...    4.8490e-08  Tolerance :   1.0000e-07
  Last MAX-Density change    ...    2.0193e-04  Tolerance :   1.0000e-05
  Last RMS-Density change    ...    3.6642e-06  Tolerance :   1.0000e-06
  Last DIIS Error            ...    1.5926e-03  Tolerance :   1.0000e-07
  Last Orbital Gradient      ...    1.3496e-05  Tolerance :   1.0000e-04
  Last Orbital Rotation      ...    2.5448e-05  Tolerance :   1.0000e-04


----------------
ORBITAL ENERGIES
----------------

  NO   OCC          E(Eh)            E(eV) 
   0   2.0000    -107.156950     -2915.8889 
   1   2.0000     -21.712439      -590.8255 
   2   2.0000     -12.129429      -330.0585 
   3   2.0000     -12.116861      -329.7166 
   4   2.0000     -12.065711      -328.3247 
   5   2.0000     -12.059152      -328.1462 
   6   2.0000     -12.055276      -328.0407 
   7   2.0000     -12.052439      -327.9636 
   8   2.0000     -11.310006      -307.7609 
   9   2.0000      -9.101533      -247.6653 
  10   2.0000      -9.098971      -247.5956 
  11   2.0000      -9.098874      -247.5929 
  12   2.0000      -1.728902       -47.0458 
  13   2.0000      -1.439604       -39.1736 
  14   2.0000      -1.382633       -37.6233 
  15   2.0000      -1.294129       -35.2150 
  16   2.0000      -1.276556       -34.7369 
  17   2.0000      -1.164930       -31.6994 
  18   2.0000      -1.131647       -30.7937 
  19   2.0000      -1.074469       -29.2378 
  20   2.0000      -1.016739       -27.6669 
  21   2.0000      -0.966189       -26.2913 
  22   2.0000      -0.960448       -26.1351 
  23   2.0000      -0.955801       -26.0087 
  24   2.0000      -0.917595       -24.9690 
  25   2.0000      -0.894538       -24.3416 
  26   2.0000      -0.845751       -23.0141 
  27   2.0000      -0.832778       -22.6610 
  28   2.0000      -0.828240       -22.5376 
  29   2.0000      -0.803458       -21.8632 
  30   2.0000      -0.772313       -21.0157 
  31   2.0000      -0.656304       -17.8590 
  32   2.0000      -0.648308       -17.6414 
  33   0.0000      -0.278485        -7.5780 
  34   0.0000      -0.263501        -7.1702 
  35   0.0000      -0.252919        -6.8823 
  36   0.0000      -0.142399        -3.8749 
  37   0.0000      -0.084033        -2.2867 
  38   0.0000      -0.047449        -1.2912 
  39   0.0000      -0.004866        -0.1324 
  40   0.0000      -0.000966        -0.0263 
  41   0.0000       0.015382         0.4186 
  42   0.0000       0.029256         0.7961 
  43   0.0000       0.078987         2.1493 
*Only the first 10 virtual orbitals were printed.

                    ********************************
                    * MULLIKEN POPULATION ANALYSIS *
                    ********************************

-----------------------
MULLIKEN ATOMIC CHARGES
-----------------------
   0 C :   -0.137998
   1 C :   -0.182829
   2 C :   -0.202492
   3 C :    0.095038
   4 C :    0.191800
   5 C :   -0.244172
   6 O :   -0.427982
   7 Cl:   -0.123670
   8 H :    0.167156
   9 H :    0.166965
  10 H :    0.176879
  11 H :    0.163639
  12 H :    0.357667
Sum of atomic charges:   -0.0000000

--------------------------------
MULLIKEN REDUCED ORBITAL CHARGES
--------------------------------
  0 C s       :     3.183695  s :     3.183695
      pz      :     0.943622  p :     2.855154
      px      :     0.999420
      py      :     0.912113
      dz2     :     0.004064  d :     0.091732
      dxz     :     0.006199
      dyz     :     0.024435
      dx2y2   :     0.034901
      dxy     :     0.022133
      f0      :     0.001558  f :     0.007417
      f+1     :     0.000698
      f-1     :     0.000590
      f+2     :     0.000239
      f-2     :     0.001124
      f+3     :     0.001123
      f-3     :     0.002084

  1 C s       :     3.189998  s :     3.189998
      pz      :     0.996935  p :     2.896632
      px      :     0.931871
      py      :     0.967826
      dz2     :     0.004319  d :     0.088814
      dxz     :     0.016457
      dyz     :     0.010790
      dx2y2   :     0.024405
      dxy     :     0.032843
      f0      :     0.001573  f :     0.007384
      f+1     :     0.000644
      f-1     :     0.000689
      f+2     :     0.000990
      f-2     :     0.000281
      f+3     :     0.001165
      f-3     :     0.002042

  2 C s       :     3.220502  s :     3.220502
      pz      :     0.953987  p :     2.878358
      px      :     0.965298
      py      :     0.959072
      dz2     :     0.005121  d :     0.095951
      dxz     :     0.021737
      dyz     :     0.010900
      dx2y2   :     0.022910
      dxy     :     0.035283
      f0      :     0.001636  f :     0.007681
      f+1     :     0.000658
      f-1     :     0.000733
      f+2     :     0.000805
      f-2     :     0.000693
      f+3     :     0.001213
      f-3     :     0.001942

  3 C s       :     3.129344  s :     3.129344
      pz      :     1.073260  p :     2.611730
      px      :     0.753109
      py      :     0.785360
      dz2     :     0.008237  d :     0.153418
      dxz     :     0.025542
      dyz     :     0.023866
      dx2y2   :     0.048856
      dxy     :     0.046918
      f0      :     0.002035  f :     0.010469
      f+1     :     0.001061
      f-1     :     0.000691
      f+2     :     0.000922
      f-2     :     0.001044
      f+3     :     0.001633
      f-3     :     0.003084

  4 C s       :     3.036204  s :     3.036204
      pz      :     0.919781  p :     2.571430
      px      :     0.878493
      py      :     0.773157
      dz2     :     0.006214  d :     0.184754
      dxz     :     0.033659
      dyz     :     0.039312
      dx2y2   :     0.062016
      dxy     :     0.043554
      f0      :     0.002587  f :     0.015811
      f+1     :     0.000928
      f-1     :     0.001165
      f+2     :     0.001459
      f-2     :     0.002234
      f+3     :     0.002340
      f-3     :     0.005098

  5 C s       :     3.261101  s :     3.261101
      pz      :     1.014882  p :     2.894936
      px      :     0.912230
      py      :     0.967823
      dz2     :     0.004449  d :     0.080588
      dxz     :     0.019064
      dyz     :     0.008322
      dx2y2   :     0.028396
      dxy     :     0.020357
      f0      :     0.001629  f :     0.007548
      f+1     :     0.000705
      f-1     :     0.000725
      f+2     :     0.000728
      f-2     :     0.000596
      f+3     :     0.001081
      f-3     :     0.002085

  6 O s       :     3.742882  s :     3.742882
      pz      :     1.833555  p :     4.652514
      px      :     1.304845
      py      :     1.514113
      dz2     :     0.004308  d :     0.030906
      dxz     :     0.001423
      dyz     :     0.004998
      dx2y2   :     0.011418
      dxy     :     0.008760
      f0      :     0.000229  f :     0.001681
      f+1     :     0.000426
      f-1     :     0.000241
      f+2     :     0.000029
      f-2     :     0.000107
      f+3     :     0.000357
      f-3     :     0.000292

  7 Cls       :     5.871507  s :     5.871507
      pz      :     3.943122  p :    11.187892
      px      :     3.284356
      py      :     3.960414
      dz2     :     0.007803  d :     0.059021
      dxz     :     0.017785
      dyz     :     0.000377
      dx2y2   :     0.023224
      dxy     :     0.009833
      f0      :     0.000559  f :     0.005251
      f+1     :     0.001037
      f-1     :     0.000096
      f+2     :     0.000815
      f-2     :     0.000046
      f+3     :     0.001655
      f-3     :     0.001042

  8 H s       :     0.810979  s :     0.810979
      pz      :     0.004225  p :     0.021864
      px      :     0.014120
      py      :     0.003519

  9 H s       :     0.810958  s :     0.810958
      pz      :     0.004595  p :     0.022078
      px      :     0.006914
      py      :     0.010569

 10 H s       :     0.801024  s :     0.801024
      pz      :     0.004228  p :     0.022097
      px      :     0.005341
      py      :     0.012529

 11 H s       :     0.814273  s :     0.814273
      pz      :     0.004577  p :     0.022088
      px      :     0.005011
      py      :     0.012499

 12 H s       :     0.596144  s :     0.596144
      pz      :     0.014447  p :     0.046189
      px      :     0.021543
      py      :     0.010199


------------------------
MULLIKEN OVERLAP CHARGES
------------------------
B(  0-C ,  1-C ) :   0.8385 B(  0-C ,  2-C ) :   0.1143 B(  0-C ,  3-C ) :  -0.2950 
B(  0-C ,  4-C ) :   0.1520 B(  0-C ,  5-C ) :   0.8606 B(  0-C ,  8-H ) :   0.8873 
B(  0-C ,  9-H ) :  -0.0978 B(  0-C , 11-H ) :  -0.0966 B(  1-C ,  2-C ) :   0.7346 
B(  1-C ,  3-C ) :   0.2268 B(  1-C ,  4-C ) :  -0.2977 B(  1-C ,  5-C ) :   0.0664 
B(  1-C ,  8-H ) :  -0.1026 B(  1-C ,  9-H ) :   0.8818 B(  1-C , 10-H ) :  -0.0831 
B(  2-C ,  3-C ) :   0.3172 B(  2-C ,  4-C ) :   0.3435 B(  2-C ,  5-C ) :  -0.2811 
B(  2-C ,  7-Cl) :  -0.0702 B(  2-C ,  9-H ) :  -0.0980 B(  2-C , 10-H ) :   0.8799 
B(  3-C ,  4-C ) :   0.1070 B(  3-C ,  5-C ) :   0.2129 B(  3-C ,  6-O ) :  -0.2157 
B(  3-C ,  7-Cl) :   0.5376 B(  3-C , 10-H ) :  -0.1199 B(  3-C , 12-H ) :  -0.0865 
B(  4-C ,  5-C ) :   0.6956 B(  4-C ,  6-O ) :   0.8139 B(  4-C ,  7-Cl) :  -0.0687 
B(  4-C , 11-H ) :  -0.1295 B(  5-C ,  6-O ) :  -0.1069 B(  5-C ,  8-H ) :  -0.1016 
B(  5-C , 11-H ) :   0.8749 B(  6-O , 12-H ) :   0.6209 


                     *******************************
                     * LOEWDIN POPULATION ANALYSIS *
                     *******************************

----------------------
LOEWDIN ATOMIC CHARGES
----------------------
   0 C :   -0.135464
   1 C :   -0.154813
   2 C :   -0.141838
   3 C :   -0.408252
   4 C :   -0.279919
   5 C :   -0.121871
   6 O :    0.062462
   7 Cl:    0.359699
   8 H :    0.155784
   9 H :    0.153847
  10 H :    0.158871
  11 H :    0.159017
  12 H :    0.192477

-------------------------------
LOEWDIN REDUCED ORBITAL CHARGES
-------------------------------
  0 C s       :     2.764473  s :     2.764473
      pz      :     0.867452  p :     2.935814
      px      :     0.998838
      py      :     1.069525
      dz2     :     0.024376  d :     0.391803
      dxz     :     0.013689
      dyz     :     0.086668
      dx2y2   :     0.162548
      dxy     :     0.104522
      f0      :     0.003053  f :     0.043374
      f+1     :     0.003034
      f-1     :     0.004244
      f+2     :     0.001562
      f-2     :     0.008099
      f+3     :     0.008366
      f-3     :     0.015016

  1 C s       :     2.763078  s :     2.763078
      pz      :     0.908291  p :     2.966846
      px      :     1.037280
      py      :     1.021276
      dz2     :     0.024607  d :     0.381961
      dxz     :     0.055510
      dyz     :     0.033946
      dx2y2   :     0.110526
      dxy     :     0.157373
      f0      :     0.003021  f :     0.042928
      f+1     :     0.003901
      f-1     :     0.003492
      f+2     :     0.006999
      f-2     :     0.001871
      f+3     :     0.008477
      f-3     :     0.015167

  2 C s       :     2.766124  s :     2.766124
      pz      :     0.876468  p :     2.942632
      px      :     1.065372
      py      :     1.000793
      dz2     :     0.025521  d :     0.389378
      dxz     :     0.075301
      dyz     :     0.029955
      dx2y2   :     0.114513
      dxy     :     0.144088
      f0      :     0.003280  f :     0.043703
      f+1     :     0.004114
      f-1     :     0.003443
      f+2     :     0.005570
      f-2     :     0.005026
      f+3     :     0.008612
      f-3     :     0.013660

  3 C s       :     2.776632  s :     2.776632
      pz      :     0.975323  p :     2.986681
      px      :     0.927917
      py      :     1.083441
      dz2     :     0.041942  d :     0.584214
      dxz     :     0.083034
      dyz     :     0.079260
      dx2y2   :     0.212871
      dxy     :     0.167107
      f0      :     0.004384  f :     0.060725
      f+1     :     0.005153
      f-1     :     0.004685
      f+2     :     0.006357
      f-2     :     0.007536
      f+3     :     0.011413
      f-3     :     0.021197

  4 C s       :     2.719342  s :     2.719342
      pz      :     0.854572  p :     2.780903
      px      :     1.007699
      py      :     0.918632
      dz2     :     0.045119  d :     0.683860
      dxz     :     0.099663
      dyz     :     0.127855
      dx2y2   :     0.206293
      dxy     :     0.204930
      f0      :     0.007095  f :     0.095814
      f+1     :     0.005661
      f-1     :     0.007956
      f+2     :     0.009685
      f-2     :     0.016074
      f+3     :     0.017893
      f-3     :     0.031449

  5 C s       :     2.760449  s :     2.760449
      pz      :     0.915338  p :     2.954924
      px      :     1.024975
      py      :     1.014610
      dz2     :     0.025201  d :     0.364302
      dxz     :     0.063497
      dyz     :     0.023125
      dx2y2   :     0.134757
      dxy     :     0.117723
      f0      :     0.003127  f :     0.042197
      f+1     :     0.004264
      f-1     :     0.003294
      f+2     :     0.005058
      f-2     :     0.003993
      f+3     :     0.008419
      f-3     :     0.014041

  6 O s       :     3.320080  s :     3.320080
      pz      :     1.717424  p :     4.543879
      px      :     1.293017
      py      :     1.533438
      dz2     :     0.007873  d :     0.068934
      dxz     :     0.004351
      dyz     :     0.009894
      dx2y2   :     0.028637
      dxy     :     0.018180
      f0      :     0.000403  f :     0.004645
      f+1     :     0.000694
      f-1     :     0.000404
      f+2     :     0.000107
      f-2     :     0.000493
      f+3     :     0.000975
      f-3     :     0.001568

  7 Cls       :     5.549444  s :     5.549444
      pz      :     3.869579  p :    10.982620
      px      :     3.270042
      py      :     3.843000
      dz2     :     0.011579  d :     0.097245
      dxz     :     0.030278
      dyz     :     0.000342
      dx2y2   :     0.036097
      dxy     :     0.018949
      f0      :     0.001220  f :     0.010992
      f+1     :     0.001781
      f-1     :     0.000182
      f+2     :     0.001999
      f-2     :     0.000067
      f+3     :     0.003031
      f-3     :     0.002711

  8 H s       :     0.785013  s :     0.785013
      pz      :     0.012405  p :     0.059202
      px      :     0.036117
      py      :     0.010680

  9 H s       :     0.786241  s :     0.786241
      pz      :     0.013507  p :     0.059912
      px      :     0.018743
      py      :     0.027663

 10 H s       :     0.780974  s :     0.780974
      pz      :     0.012664  p :     0.060155
      px      :     0.014984
      py      :     0.032507

 11 H s       :     0.780652  s :     0.780652
      pz      :     0.013585  p :     0.060331
      px      :     0.014381
      py      :     0.032365

 12 H s       :     0.653044  s :     0.653044
      pz      :     0.040946  p :     0.154479
      px      :     0.078759
      py      :     0.034774


---------------------------------
LOEWDIN BOND ORDERS (THRESH 0.050000)
---------------------------------
B(  0-C ,  1-C ) :   1.5710 B(  0-C ,  2-C ) :   0.2462 B(  0-C ,  3-C ) :   0.1053 
B(  0-C ,  4-C ) :   0.2430 B(  0-C ,  5-C ) :   1.5973 B(  0-C ,  8-H ) :   0.8240 
B(  0-C ,  9-H ) :   0.0945 B(  0-C , 11-H ) :   0.0948 B(  1-C ,  2-C ) :   1.5867 
B(  1-C ,  3-C ) :   0.2477 B(  1-C ,  4-C ) :   0.1008 B(  1-C ,  5-C ) :   0.2412 
B(  1-C ,  8-H ) :   0.0947 B(  1-C ,  9-H ) :   0.8255 B(  1-C , 10-H ) :   0.0943 
B(  2-C ,  3-C ) :   1.5583 B(  2-C ,  4-C ) :   0.2314 B(  2-C ,  5-C ) :   0.1083 
B(  2-C ,  7-Cl) :   0.1598 B(  2-C ,  9-H ) :   0.0979 B(  2-C , 10-H ) :   0.8183 
B(  3-C ,  4-C ) :   1.4595 B(  3-C ,  5-C ) :   0.2319 B(  3-C ,  6-O ) :   0.1403 
B(  3-C ,  7-Cl) :   1.5726 B(  3-C , 10-H ) :   0.0989 B(  4-C ,  5-C ) :   1.4828 
B(  4-C ,  6-O ) :   1.6577 B(  4-C ,  7-Cl) :   0.1583 B(  4-C , 11-H ) :   0.0990 
B(  4-C , 12-H ) :   0.1037 B(  5-C ,  6-O ) :   0.1519 B(  5-C ,  8-H ) :   0.0980 
B(  5-C , 11-H ) :   0.8170 B(  6-O , 12-H ) :   0.9700 

------------------------------------------
LOEWDIN REDUCED ORBITAL POPULATIONS PER MO
-------------------------------------------
THRESHOLD FOR PRINTING IS 0.1%%
                      0         1         2         3         4         5   
                 -107.15695 -21.71244 -12.12943 -12.11686 -12.06571 -12.05915
                   2.00000   2.00000   2.00000   2.00000   2.00000   2.00000
                  --------  --------  --------  --------  --------  --------
 0 C  s               0.0       0.0       0.0       0.0       0.0      90.1
 1 C  s               0.0       0.0       0.0       0.0       0.6       2.0
 1 C  dx2y2           0.0       0.0       0.0       0.0       0.2       0.1
 1 C  dxy             0.0       0.0       0.0       0.0       0.0       0.1
 2 C  s               0.0       0.0       0.0       0.1      98.3       0.0
 2 C  dxy             0.0       0.0       0.0       0.2       0.0       0.0
 3 C  s               0.0       0.0       0.7      98.2       0.1       0.0
 3 C  dxy             0.0       0.0       0.1       0.0       0.2       0.0
 4 C  s               0.0       0.0      98.2       0.7       0.0       0.0
 4 C  dxy             0.0       0.0       0.0       0.1       0.0       0.0
 5 C  s               0.0       0.0       0.0       0.0       0.0       6.9
 5 C  dx2y2           0.0       0.0       0.2       0.0       0.0       0.0
 5 C  dxy             0.0       0.0       0.0       0.0       0.0       0.2
 6 O  s               0.0      99.8       0.0       0.0       0.0       0.0
 7 Cl s             100.0       0.0       0.0       0.0       0.0       0.0

                      6         7         8         9        10        11   
                 -12.05528 -12.05244 -11.31001  -9.10153  -9.09897  -9.09887
                   2.00000   2.00000   2.00000   2.00000   2.00000   2.00000
                  --------  --------  --------  --------  --------  --------
 0 C  s               5.9       3.0       0.0       0.0       0.0       0.0
 0 C  dxy             0.2       0.1       0.0       0.0       0.0       0.0
 1 C  s               2.0      94.4       0.0       0.0       0.0       0.0
 2 C  s               0.0       0.6       0.0       0.0       0.0       0.0
 2 C  dx2y2           0.0       0.2       0.0       0.0       0.0       0.0
 4 C  dx2y2           0.2       0.0       0.0       0.0       0.0       0.0
 5 C  s              91.1       1.0       0.0       0.0       0.0       0.0
 7 Cl s               0.0       0.0      99.8       0.0       0.0       0.0
 7 Cl pz              0.0       0.0       0.0       0.0       0.0     100.0
 7 Cl px              0.0       0.0       0.0      98.8       1.1       0.0
 7 Cl py              0.0       0.0       0.0       1.1      98.9       0.0

                     12        13        14        15        16        17   
                  -1.72890  -1.43960  -1.38263  -1.29413  -1.27656  -1.16493
                   2.00000   2.00000   2.00000   2.00000   2.00000   2.00000
                  --------  --------  --------  --------  --------  --------
 0 C  s               0.0       1.2      10.1       0.2      16.3       1.0
 0 C  px              0.0       0.7       2.8       0.0       0.6       0.0
 0 C  py              0.0       0.0       0.0       7.7       0.1       5.6
 0 C  dz2             0.0       0.1       0.5       0.0       0.2       0.0
 0 C  dx2y2           0.0       0.0       0.0       0.1       0.4       0.0
 0 C  dxy             0.0       0.0       0.0       1.8       0.1       0.5
 0 C  f+3             0.0       0.0       0.1       0.0       0.1       0.0
 1 C  s               0.0       1.7       8.5      12.0       3.0       5.4
 1 C  px              0.0       0.8       0.5       2.2       4.3       0.3
 1 C  py              0.0       0.3       2.1       0.3       3.2       1.4
 1 C  dz2             0.0       0.1       0.5       0.2       0.0       0.0
 1 C  dx2y2           0.0       0.0       0.0       0.7       1.4       0.1
 1 C  dxy             0.0       0.0       0.0       0.1       0.5       0.1
 1 C  f+3             0.0       0.0       0.1       0.1       0.0       0.0
 2 C  s               0.0       5.2       5.6      12.6       4.3       0.4
 2 C  px              0.0       0.9       2.2       2.1       3.2       5.5
 2 C  py              0.1       2.4       1.1       0.2       1.5       1.9
 2 C  dz2             0.0       0.3       0.3       0.2       0.0       0.0
 2 C  dx2y2           0.0       0.0       0.0       0.8       0.7       0.7
 2 C  dxy             0.0       0.4       0.1       0.0       0.9       0.2
 3 C  s               0.5      18.9       1.2       0.0      10.1       3.5
 3 C  px              0.0       4.1      13.5       0.2       3.8       0.3
 3 C  py              1.4       0.1       0.1       9.2       0.0       0.0
 3 C  dz2             0.1       1.4       0.0       0.0       0.0       0.0
 3 C  dx2y2           0.3       1.5       1.0       0.1       1.8       0.0
 3 C  dxy             0.0       0.0       0.0       2.2       0.1       0.1
 3 C  f+1             0.0       0.0       0.1       0.0       0.0       0.0
 3 C  f+3             0.0       0.3       0.0       0.0       0.0       0.0
 4 C  s               7.5       4.1       5.9      10.7       2.7       1.3
 4 C  px              3.7       0.3       4.3       2.7       2.8       0.3
 4 C  py              7.3       4.2       0.9       0.1       3.2      11.3
 4 C  dz2             1.2       0.2       0.2       0.0       0.0       0.1
 4 C  dx2y2           0.4       0.0       0.0       0.6       1.4       0.3
 4 C  dxy             3.0       0.8       0.0       0.5       0.5       0.1
 4 C  f-1             0.2       0.0       0.0       0.0       0.0       0.1
 4 C  f+3             0.5       0.0       0.0       0.1       0.0       0.0
 5 C  s               0.4       1.6      10.0       8.7       5.3       1.5
 5 C  px              1.3       0.4       0.3       2.9       4.8       2.9
 5 C  py              0.1       0.6       2.4       0.4       1.7       1.7
 5 C  dz2             0.1       0.1       0.5       0.1       0.1       0.0
 5 C  dx2y2           0.2       0.0       0.0       1.0       0.5       0.1
 5 C  dxy             0.1       0.0       0.0       0.0       1.3       0.2
 5 C  f-3             0.0       0.0       0.0       0.0       0.0       0.2
 6 O  s              56.4       0.5       0.4       1.2       0.4       0.2
 6 O  px              0.0       0.2       1.0       5.7       0.4      30.2
 6 O  py              1.4       0.5       0.5       3.0       1.3       5.6
 6 O  dx2y2           0.0       0.0       0.0       0.0       0.1       0.2
 6 O  dxy             0.0       0.0       0.0       0.2       0.0       0.4
 7 Cl s               0.0      42.7      17.9       0.0       8.1       1.5
 7 Cl px              0.0       1.0       0.3       0.0       2.2       1.5
 7 Cl dx2y2           0.0       0.2       0.0       0.0       0.3       0.1
 8 H  s               0.0       0.1       1.2       0.0       2.8       0.3
 8 H  px              0.0       0.0       0.1       0.0       0.3       0.0
 9 H  s               0.0       0.2       1.0       1.8       0.5       1.8
 9 H  px              0.0       0.0       0.0       0.1       0.0       0.1
 9 H  py              0.0       0.0       0.0       0.1       0.1       0.1
10 H  s               0.0       0.7       0.5       2.0       0.6       0.1
10 H  py              0.0       0.0       0.0       0.2       0.1       0.0
11 H  s               0.1       0.2       1.1       1.4       0.9       0.2
11 H  py              0.0       0.0       0.1       0.1       0.1       0.0
12 H  s              10.4       0.3       0.4       2.0       0.3       8.9
12 H  px              2.8       0.0       0.0       0.2       0.0       0.5
12 H  py              0.1       0.0       0.0       0.1       0.0       0.4

                     18        19        20        21        22        23   
                  -1.13165  -1.07447  -1.01674  -0.96619  -0.96045  -0.95580
                   2.00000   2.00000   2.00000   2.00000   2.00000   2.00000
                  --------  --------  --------  --------  --------  --------
 0 C  s               2.2       5.7       0.0       0.3       0.0       0.0
 0 C  px              0.7       2.7       0.2       1.9       0.0       0.2
 0 C  py              8.7       0.8       7.6       0.2       0.0      12.7
 0 C  dx2y2           0.0       0.0       0.0       0.8       0.0       0.0
 0 C  dxy             0.4       0.0       0.0       0.1       0.0       0.1
 1 C  s               2.1       2.6       0.2       1.9       0.0       0.0
 1 C  pz              0.0       0.0       0.0       0.0       0.1       0.0
 1 C  px              7.4       2.2       3.3       3.9       0.0       9.2
 1 C  py              1.9       3.8       2.3       8.0       0.0       3.3
 1 C  dx2y2           0.4       0.0       0.1       0.0       0.0       0.1
 1 C  dxy             0.1       0.2       0.1       0.0       0.0       0.0
 2 C  s               6.9       0.1       1.6       0.3       0.0       0.0
 2 C  px              1.4      12.5       0.4       0.1       0.0       9.7
 2 C  py              0.8       1.2       4.4       4.3       0.0       1.7
 2 C  dx2y2           0.0       0.1       0.0       0.6       0.0       0.1
 2 C  dxy             0.0       0.1       0.0       0.6       0.0       0.0
 3 C  s               1.0       2.0       0.7       1.0       0.0       0.1
 3 C  pz              0.0       0.0       0.0       0.0       0.8       0.0
 3 C  px              0.3       0.8       0.5      12.1       0.0       0.2
 3 C  py             16.3       7.7       0.1       0.1       0.0      11.6
 3 C  dyz             0.0       0.0       0.0       0.0       0.4       0.0
 3 C  dx2y2           0.1       0.4       0.6       0.2       0.0       0.1
 3 C  dxy             0.2       0.4       0.5       0.2       0.0       0.1
 4 C  s               1.2       1.5       0.1       0.1       0.0       0.1
 4 C  pz              0.0       0.0       0.0       0.0      12.4       0.0
 4 C  px             13.0       5.0       5.4       0.3       0.0       5.6
 4 C  py              5.5       3.1       1.5       0.3       0.0       4.2
 4 C  dxz             0.0       0.0       0.0       0.0       1.3       0.0
 4 C  dyz             0.0       0.0       0.0       0.0       2.5       0.0
 4 C  dx2y2           0.1       1.6       2.4       0.4       0.0       1.3
 4 C  dxy             0.1       0.2       0.3       2.4       0.0       0.1
 4 C  f0              0.0       0.0       0.0       0.0       0.3       0.0
 4 C  f-2             0.0       0.0       0.0       0.0       0.4       0.0
 4 C  f-3             0.0       0.1       0.2       0.0       0.0       0.5
 5 C  s               7.0       0.6       0.7       1.4       0.0       0.0
 5 C  pz              0.0       0.0       0.0       0.0       0.6       0.0
 5 C  px              0.1       9.2       7.2       0.1       0.0      10.1
 5 C  py              2.2       0.6       0.1       7.7       0.0       2.6
 5 C  dxz             0.0       0.0       0.0       0.0       0.5       0.0
 5 C  dxy             0.0       1.6       0.1       0.1       0.0       0.0
 6 O  s               0.9       0.3       4.1       0.1       0.0       1.5
 6 O  pz              0.0       0.0       0.0       0.0      78.1       0.0
 6 O  px              0.9      13.8       5.6       0.1       0.0       6.1
 6 O  py              5.7       0.5      41.6       1.7       0.0      12.0
 6 O  dz2             0.0       0.0       0.1       0.0       0.0       0.1
 6 O  dx2y2           0.2       0.2       0.0       0.0       0.0       0.4
 7 Cl s               0.7       1.4       0.0       3.6       0.0       0.0
 7 Cl pz              0.0       0.0       0.0       0.0       0.2       0.0
 7 Cl px              0.7       4.0       0.0      28.1       0.0       0.0
 7 Cl py              0.6       0.2       0.2       0.4       0.0       1.4
 7 Cl dz2             0.0       0.1       0.0       0.2       0.0       0.0
 7 Cl dx2y2           0.0       0.4       0.1       0.5       0.0       0.0
 7 Cl dxy             0.3       0.1       0.0       0.0       0.0       0.2
 8 H  s               0.8       4.1       0.2       0.2       0.0       0.0
 8 H  px              0.1       0.4       0.0       0.0       0.0       0.0
 8 H  py              0.1       0.0       0.1       0.0       0.0       0.2
 9 H  s               0.8       1.4       0.0       8.3       0.0       0.1
 9 H  px              0.0       0.2       0.0       0.1       0.0       0.1
 9 H  py              0.2       0.0       0.0       0.3       0.0       0.1
10 H  s               3.2       0.2       2.5       0.8       0.0       0.0
10 H  px              0.0       0.1       0.1       0.0       0.0       0.1
10 H  py              0.3       0.1       0.1       0.0       0.0       0.0
11 H  s               3.2       0.1       1.2       5.3       0.0       0.1
11 H  px              0.1       0.1       0.0       0.1       0.0       0.2
11 H  py              0.3       0.0       0.2       0.2       0.0       0.0
12 H  s               0.1       4.6       1.8       0.0       0.0       2.7
12 H  pz              0.0       0.0       0.0       0.0       1.8       0.0
12 H  py              0.1       0.1       0.7       0.0       0.0       0.1

                     24        25        26        27        28        29   
                  -0.91760  -0.89454  -0.84575  -0.83278  -0.82824  -0.80346
                   2.00000   2.00000   2.00000   2.00000   2.00000   2.00000
                  --------  --------  --------  --------  --------  --------
 0 C  s               1.2       0.4       0.4       0.0       0.2       0.0
 0 C  pz              0.0       0.0       0.0       1.1       0.0       0.0
 0 C  px             19.6       2.9       6.9       0.0      10.6       0.1
 0 C  py              0.0       0.2       4.6       0.0       4.3       0.9
 0 C  dz2             0.0       0.1       0.0       0.0       0.0       0.0
 0 C  dx2y2           0.5       0.6       1.9       0.0       3.4       0.1
 0 C  dxy             0.1       0.3       1.3       0.0       0.0       0.1
 0 C  f-3             0.1       0.2       0.2       0.0       0.0       0.1
 1 C  s               0.5       0.4       0.7       0.0       0.0       0.0
 1 C  pz              0.0       0.0       0.0       1.4       0.0       0.0
 1 C  px              3.7       0.3       8.8       0.0       4.2       0.4
 1 C  py              4.2       0.7      12.6       0.0       5.3       1.7
 1 C  dz2             0.1       0.0       0.0       0.0       0.0       0.0
 1 C  dxz             0.0       0.0       0.0       0.1       0.0       0.0
 1 C  dx2y2           0.2       0.4       1.3       0.0       0.4       0.0
 1 C  dxy             0.5       1.2       4.3       0.0       0.2       0.5
 1 C  f-3             0.0       0.3       0.0       0.0       0.1       0.0
 2 C  s               1.0       0.6       0.5       0.0       0.2       0.1
 2 C  pz              0.0       0.0       0.0       4.8       0.0       0.0
 2 C  px              3.4       1.6       3.6       0.0       5.5       1.0
 2 C  py              6.3      17.6       0.6       0.0       4.5       1.5
 2 C  dxz             0.0       0.0       0.0       0.1       0.0       0.0
 2 C  dyz             0.0       0.0       0.0       0.4       0.0       0.0
 2 C  dx2y2           1.4       0.1       0.0       0.0       1.0       0.0
 2 C  dxy             0.0       1.4       1.2       0.0       1.6       0.4
 2 C  f-3             0.2       0.0       0.1       0.0       0.0       0.0
 3 C  s               0.1       0.6       0.2       0.0       0.0       0.0
 3 C  pz              0.0       0.0       0.0      17.9       0.0       0.0
 3 C  px              4.7       4.5       1.0       0.0       0.3       0.0
 3 C  py              1.5       0.5       1.1       0.0       1.6       2.7
 3 C  dz2             0.0       0.2       0.0       0.0       0.0       0.0
 3 C  dxz             0.0       0.0       0.0       1.3       0.0       0.0
 3 C  dx2y2           2.1       0.0       0.4       0.0       1.5       0.3
 3 C  dxy             0.2       0.6       0.4       0.0       0.3       2.7
 3 C  f0              0.0       0.0       0.0       0.2       0.0       0.0
 3 C  f-3             0.1       0.2       0.0       0.0       0.1       0.3
 4 C  s               1.0       0.4       0.1       0.0       0.1       0.1
 4 C  pz              0.0       0.0       0.0       2.4       0.0       0.0
 4 C  px              0.0       1.9       0.4       0.0       3.2       1.5
 4 C  py              2.1       0.1       0.2       0.0       0.9       0.9
 4 C  dz2             0.1       0.1       0.0       0.0       0.0       0.0
 4 C  dyz             0.0       0.0       0.0       1.2       0.0       0.0
 4 C  dx2y2           0.3       0.8       0.1       0.0       0.1       0.0
 4 C  dxy             0.1       0.5       1.1       0.0       0.4       0.1
 4 C  f-2             0.0       0.0       0.0       0.1       0.0       0.0
 4 C  f-3             0.0       0.4       0.0       0.0       0.0       0.0
 5 C  s               0.3       0.8       0.2       0.0       0.3       0.0
 5 C  pz              0.0       0.0       0.0       1.3       0.0       0.0
 5 C  px              0.5       5.4       1.8       0.0       3.7       0.5
 5 C  py              0.4      17.0       7.3       0.0       4.2       1.6
 5 C  dx2y2           1.2       0.3       0.0       0.0       2.7       0.2
 5 C  dxy             0.0       0.8       0.1       0.0       0.9       0.3
 5 C  f-3             0.3       0.0       0.0       0.0       0.1       0.0
 6 O  pz              0.0       0.0       0.0       2.2       0.0       0.0
 6 O  px              0.0       0.0       0.1       0.0       0.3       0.1
 6 O  py              1.7       0.1       0.4       0.0       0.5       0.1
 7 Cl s               1.1       0.4       0.1       0.0       0.1       0.0
 7 Cl pz              0.0       0.0       0.0      64.8       0.0       0.0
 7 Cl px             14.4       5.1       1.6       0.0       4.3       0.4
 7 Cl py              0.1       0.0       6.6       0.0       7.1      75.5
 7 Cl dxz             0.0       0.0       0.0       0.2       0.0       0.0
 7 Cl dx2y2           0.2       0.0       0.0       0.0       0.0       0.0
 7 Cl dxy             0.0       0.0       0.0       0.0       0.0       0.2
 8 H  s              12.9       0.6       6.0       0.0       9.8       0.1
 8 H  px              0.5       0.0       0.1       0.0       0.2       0.0
 9 H  s               2.4       1.0      18.1       0.0       0.3       1.6
 9 H  px              0.0       0.0       0.1       0.0       0.1       0.0
 9 H  py              0.1       0.0       0.3       0.0       0.0       0.0
10 H  s               7.5      12.4       0.3       0.0       7.3       0.7
10 H  px              0.0       0.1       0.1       0.0       0.0       0.0
10 H  py              0.2       0.3       0.0       0.0       0.2       0.0
11 H  s               0.0      14.7       1.7       0.0       7.1       1.7
11 H  px              0.0       0.0       0.1       0.0       0.0       0.0
11 H  py              0.0       0.4       0.0       0.0       0.1       0.0
12 H  s               0.1       0.0       0.2       0.0       0.2       0.6

                     30        31        32        33        34        35   
                  -0.77231  -0.65630  -0.64831  -0.27849  -0.26350  -0.25292
                   2.00000   2.00000   2.00000   0.00000   0.00000   0.00000
                  --------  --------  --------  --------  --------  --------
 0 C  s               0.0       0.0       0.0       0.1       0.0       0.0
 0 C  pz             13.8      25.6       2.8       0.0      19.3       3.1
 0 C  dxz             0.5       0.1       0.0       0.0       0.8       0.3
 0 C  dyz             0.0       0.4       3.9       0.0       0.7       4.5
 0 C  f0              0.1       0.0       0.0       0.0       0.1       0.0
 0 C  f-2             0.0       0.1       0.3       0.0       0.0       0.4
 1 C  s               0.0       0.0       0.0       0.2       0.0       0.0
 1 C  pz             13.2       1.2      29.5       0.0      10.6       9.8
 1 C  px              0.0       0.0       0.0       0.7       0.0       0.0
 1 C  dxz             0.2       2.3       0.2       0.0       0.6       3.7
 1 C  dyz             0.3       1.3       0.0       0.0       2.2       0.2
 1 C  dxy             0.0       0.0       0.0       0.3       0.0       0.0
 1 C  f0              0.1       0.0       0.0       0.0       0.1       0.1
 1 C  f+2             0.0       0.3       0.0       0.0       0.2       0.3
 2 C  s               0.0       0.0       0.0       0.1       0.0       0.0
 2 C  pz             12.4      14.4      12.1       0.0       1.4      24.1
 2 C  px              0.0       0.0       0.0       0.1       0.0       0.0
 2 C  py              0.0       0.0       0.0       0.3       0.0       0.0
 2 C  dxz             0.2       1.2       2.3       0.0       3.4       0.7
 2 C  dyz             0.3       0.4       0.3       0.0       1.3       0.7
 2 C  dx2y2           0.0       0.0       0.0       2.1       0.0       0.0
 2 C  dxy             0.0       0.0       0.0       1.4       0.0       0.0
 2 C  f0              0.1       0.0       0.0       0.0       0.0       0.2
 2 C  f+2             0.0       0.1       0.2       0.0       0.2       0.1
 2 C  f-2             0.0       0.1       0.1       0.0       0.3       0.0
 2 C  f-3             0.0       0.0       0.0       0.4       0.0       0.0
 3 C  s               0.0       0.0       0.0       7.4       0.0       0.0
 3 C  pz              6.5      20.2       3.4       0.0      19.9       3.1
 3 C  px              0.0       0.0       0.0      22.3       0.0       0.0
 3 C  py              0.0       0.0       0.0       0.4       0.0       0.0
 3 C  dz2             0.0       0.0       0.0       1.9       0.0       0.0
 3 C  dxz             2.4       0.5       0.0       0.0       0.9       0.3
 3 C  dyz             0.0       0.4       3.1       0.0       0.9       5.2
 3 C  dx2y2           0.0       0.0       0.0       2.7       0.0       0.0
 3 C  dxy             0.0       0.0       0.0       0.2       0.0       0.0
 3 C  f0              0.0       0.0       0.0       0.0       0.3       0.0
 3 C  f+1             0.0       0.0       0.0       0.1       0.0       0.0
 3 C  f+2             0.1       0.0       0.0       0.0       0.1       0.0
 3 C  f-2             0.0       0.1       0.3       0.0       0.0       0.5
 3 C  f+3             0.0       0.0       0.0       0.6       0.0       0.0
 4 C  pz              7.9       0.4      19.7       0.0      18.0       9.8
 4 C  px              0.0       0.0       0.0       0.2       0.0       0.0
 4 C  py              0.0       0.0       0.0       2.2       0.0       0.0
 4 C  dxz             0.7       2.2       0.8       0.0       0.9       2.8
 4 C  dyz             0.8       1.4       0.5       0.0       1.1       0.7
 4 C  dx2y2           0.0       0.0       0.0       0.9       0.0       0.0
 4 C  dxy             0.0       0.0       0.0       3.1       0.0       0.0
 4 C  f0              0.0       0.0       0.0       0.0       0.3       0.2
[...]
 6 O  dz2             0.0       1.8      15.2       0.0      18.2       0.0
 6 O  dxz             6.8       0.0       0.0      59.7       0.0      29.9
 6 O  dyz            15.5       0.0       0.0      35.2       0.0      48.6
 6 O  dx2y2           0.0       3.5       1.1       0.0      22.2       0.0
 6 O  dxy             0.0       7.6       0.6       0.0       0.2       0.0
 6 O  f0             23.9       0.0       0.0       2.4       0.0       4.5
 6 O  f+1             0.0      30.7       7.5       0.0       0.1       0.0
 6 O  f-1             0.0      13.8       0.6       0.0       0.1       0.0
 6 O  f+2             5.5       0.0       0.0       0.0       0.0       2.4
 6 O  f-2            32.0       0.0       0.0       0.8       0.0       9.2
 6 O  f+3             0.0       0.8      29.9       0.0       4.5       0.0
 6 O  f-3             0.0       0.2      10.9       0.0      23.6       0.0
11 H  s               0.0       0.2       0.0       0.0       0.1       0.0
11 H  px              0.0       0.1       0.0       0.0       0.1       0.0
12 H  s               0.0       2.2       2.1       0.0       1.4       0.0
12 H  pz              0.0       0.0       0.0       0.5       0.0       0.0
12 H  px              0.0       0.8       0.3       0.0       1.3       0.0
12 H  py              0.0       0.0       0.9       0.0       0.0       0.0

                    270       271       272       273       274       275   
                   6.34386   6.52149   6.87301   9.60074   9.69545  10.22365
                   0.00000   0.00000   0.00000   0.00000   0.00000   0.00000
                  --------  --------  --------  --------  --------  --------
 0 C  s               0.0       0.1       0.0       0.0       0.0       0.0
 3 C  s               0.1       0.2       0.5       0.0       0.0       1.1
 3 C  px              0.3       0.1       0.0       0.0       0.0       0.4
 3 C  py              0.0       0.0       0.6       0.0       0.0       0.0
 3 C  dx2y2           0.2       0.0       0.2       0.0       0.0       0.0
 3 C  dxy             0.2       0.0       0.1       0.0       0.1       0.0
 3 C  f-3             0.0       0.1       0.2       0.0       0.0       0.0
 4 C  s               0.6       1.3       0.9       0.0       0.1       0.0
 4 C  px              0.8       0.4       0.1       0.0       0.0       0.0
 4 C  py              0.3       1.5       0.0       0.0       0.0       0.0
 4 C  dz2             0.1       0.1       0.1       0.0       0.0       0.0
 4 C  dx2y2           2.1       0.3       1.1       0.0       0.0       0.0
 4 C  dxy             1.0       0.9       0.9       0.0       0.0       0.0
 4 C  f+1             0.1       0.1       0.0       0.0       0.0       0.0
 4 C  f+3             0.1       1.0       0.5       0.0       0.0       0.0
 4 C  f-3             0.2       0.0       1.9       0.0       0.0       0.0
 5 C  s               0.1       0.4       0.0       0.0       0.0       0.0
 5 C  py              0.0       0.2       0.1       0.0       0.0       0.0
 5 C  dxy             0.0       0.0       0.2       0.0       0.0       0.0
 5 C  f+3             0.0       0.2       0.1       0.0       0.0       0.0
 6 O  s               1.9       1.1       3.0       0.0       0.0       0.0
 6 O  px              2.3       1.8       0.9       0.0       0.0       0.0
 6 O  py              1.9       0.8       0.0       0.0       0.0       0.0
 6 O  dz2            38.7       9.6       5.8       0.0       0.0       0.0
 6 O  dx2y2          20.0       0.7      47.7       0.0       0.0       0.0
 6 O  dxy            12.5      70.6       0.2       0.0       0.0       0.0
 6 O  f+1             1.8       2.8       3.0       0.0       0.0       0.0
 6 O  f-1             5.7       1.1       0.2       0.0       0.0       0.0
 6 O  f+3             5.7       3.6       4.4       0.0       0.0       0.0
 6 O  f-3             0.1       0.0      19.7       0.0       0.0       0.0
 7 Cl s               0.0       0.0       0.0       0.0       0.0       0.9
 7 Cl pz              0.0       0.0       0.0      99.9       0.0       0.0
 7 Cl px              0.0       0.0       0.0       0.0       0.5      96.5
 7 Cl py              0.0       0.0       0.0       0.0      98.9       0.5
 7 Cl dx2y2           0.0       0.0       0.0       0.0       0.0       0.1
12 H  s               2.2       0.2       6.6       0.0       0.0       0.0
12 H  px              0.3       0.0       0.5       0.0       0.0       0.0
12 H  py              0.0       0.1       0.0       0.0       0.0       0.0

                    276       277       278       279       280       281   
                  20.35104  20.99475  21.05277  21.10194  21.21137  21.60652
                   0.00000   0.00000   0.00000   0.00000   0.00000   0.00000
                  --------  --------  --------  --------  --------  --------
 0 C  s              16.9      29.8      24.7       2.9      17.0       6.7
 0 C  py              0.0       0.2       0.4       0.1       0.0       0.0
 0 C  dxy             0.0       0.0       0.1       0.0       0.0       0.0
 1 C  s              15.9      32.4      31.0       0.1      10.7       8.0
 1 C  px              0.0       0.2       0.2       0.0       0.0       0.0
 1 C  py              0.1       0.1       0.1       0.0       0.0       0.0
 1 C  dx2y2           0.0       0.1       0.1       0.0       0.0       0.0
 2 C  s              16.0       9.0      24.8       9.6      30.5       7.9
 2 C  px              0.0       0.4       0.1       0.1       0.0       0.0
 3 C  s              22.2      20.9       0.5      43.3       0.0      10.9
 3 C  px              0.0       0.0       0.0       0.1       0.0       0.0
 3 C  py              0.0       0.0       0.4       0.0       0.4       0.0
 3 C  dx2y2           0.0       0.0       0.0       0.0       0.0       0.1
 3 C  dxy             0.0       0.0       0.1       0.0       0.2       0.0
 4 C  s               8.8       2.4       0.2       0.1      35.8      50.2
 4 C  px              0.1       0.1       0.2       0.3       0.0       0.0
 4 C  py              0.2       0.1       0.1       0.1       0.0       0.0
 4 C  dx2y2           0.0       0.0       0.1       0.2       0.0       0.0
 5 C  s              18.6       2.8      16.3      41.9       4.0      14.4
 5 C  px              0.0       0.3       0.0       0.0       0.2       0.0
 6 O  s               0.2       0.0       0.0       0.0       0.1       0.2
 6 O  py              0.1       0.0       0.0       0.0       0.1       0.2
 7 Cl s               0.0       0.2       0.0       0.4       0.0       0.1

                    282       283   
                  24.65351  41.56053
                   0.00000   0.00000
                  --------  --------
 2 C  px              0.2       0.0
 3 C  s               0.5       0.0
 3 C  px              0.6       0.0
 3 C  dx2y2           0.6       0.0
 4 C  s               0.1       0.0
 4 C  px              0.2       0.0
 4 C  dxy             0.1       0.0
 6 O  s               0.0      99.7
 7 Cl s              96.6       0.0
 7 Cl px              0.4       0.0


                      *****************************
                      * MAYER POPULATION ANALYSIS *
                      *****************************

  NA   - Mulliken gross atomic population
  ZA   - Total nuclear charge
  QA   - Mulliken gross atomic charge
  VA   - Mayer's total valence
  BVA  - Mayer's bonded valence
  FA   - Mayer's free valence

  ATOM       NA         ZA         QA         VA         BVA        FA
  0 C      6.1380     6.0000    -0.1380     3.9129     3.9129    -0.0000
  1 C      6.1828     6.0000    -0.1828     3.9101     3.9101     0.0000
  2 C      6.2025     6.0000    -0.2025     3.9070     3.9070     0.0000
  3 C      5.9050     6.0000     0.0950     3.6708     3.6708    -0.0000
  4 C      5.8082     6.0000     0.1918     4.0337     4.0337     0.0000
  5 C      6.2442     6.0000    -0.2442     3.9093     3.9093     0.0000
  6 O      8.4280     8.0000    -0.4280     2.0606     2.0606    -0.0000
  7 Cl    17.1237    17.0000    -0.1237     1.1948     1.1948    -0.0000
  8 H      0.8328     1.0000     0.1672     0.9596     0.9596    -0.0000
  9 H      0.8330     1.0000     0.1670     0.9604     0.9604    -0.0000
 10 H      0.8231     1.0000     0.1769     0.9640     0.9640    -0.0000
 11 H      0.8364     1.0000     0.1636     0.9759     0.9759    -0.0000
 12 H      0.6423     1.0000     0.3577     0.8982     0.8982     0.0000

  Mayer bond orders larger than 0.100000
B(  0-C ,  1-C ) :   1.4003 B(  0-C ,  5-C ) :   1.4381 B(  0-C ,  8-H ) :   0.9716 
B(  1-C ,  2-C ) :   1.4225 B(  1-C ,  9-H ) :   0.9713 B(  2-C ,  3-C ) :   1.3440 
B(  2-C , 10-H ) :   0.9592 B(  3-C ,  4-C ) :   1.2909 B(  3-C ,  7-Cl) :   0.9757 
B(  4-C ,  5-C ) :   1.3744 B(  4-C ,  6-O ) :   1.1903 B(  5-C , 11-H ) :   0.9706 
B(  6-O , 12-H ) :   0.8387 

-------
TIMINGS
-------

Total SCF time: 0 days 0 hours 2 min 31 sec 

Total time                  ....     151.819 sec
Sum of individual times     ....     148.499 sec  ( 97.8%)

SCF preparation             ....       0.378 sec  (  0.2%)
Fock matrix formation       ....     146.226 sec  ( 96.3%)
  Startup                   ....       0.067 sec  (  0.0% of F)
  Split-RI-J                ....       5.779 sec  (  4.0% of F)
  Chain of spheres X        ....     117.685 sec  ( 80.5% of F)
  XC integration            ....      18.179 sec  ( 12.4% of F)
    XC Preparation          ....       0.000 sec  (  0.0% of XC)
    Basis function eval.    ....       3.449 sec  ( 19.0% of XC)
    Density eval.           ....       2.883 sec  ( 15.9% of XC)
    XC-Functional eval.     ....       3.026 sec  ( 16.6% of XC)
    XC-Potential eval.      ....       5.078 sec  ( 27.9% of XC)
  CPCM terms                ....       5.901 sec  (  4.0% of F)
Diagonalization             ....       0.000 sec  (  0.0%)
Density matrix formation    ....       0.243 sec  (  0.2%)
Total Energy calculation    ....       0.068 sec  (  0.0%)
Population analysis         ....       0.168 sec  (  0.1%)
Orbital Transformation      ....       0.082 sec  (  0.1%)
Orbital Orthonormalization  ....       0.000 sec  (  0.0%)
DIIS solution               ....       0.853 sec  (  0.6%)
  MO trafo                  ....       0.000 sec  (  0.0 % of DIIS)
  Orb grad                  ....       0.000 sec  (  0.0 % of DIIS)
  Energy W gradient         ....       0.000 sec  (  0.0 % of DIIS)
  DIIS error                ....       0.013 sec  (  1.6 % of DIIS)
  DIIS work                 ....       0.786 sec  ( 92.2 % of DIIS)
  Form Q                    ....       0.000 sec  (  0.0 % of DIIS)
  Form QpQm                 ....       0.000 sec  (  0.0 % of DIIS)
  Exp/Cayley                ....       0.000 sec  (  0.0 % of DIIS)
  Orb update                ....       0.000 sec  (  0.0 % of DIIS)
  Wake-sleep                ....       0.014 sec  (  1.7 % of DIIS)
SOSCF solution              ....       0.300 sec  (  0.2%)
  MO trafo                  ....       0.096 sec  ( 32.1 % of SOSCF)
  Orb grad                  ....       0.004 sec  (  1.3 % of SOSCF)
  Rot update                ....       0.117 sec  ( 39.0 % of SOSCF)
  Step                      ....       0.083 sec  ( 27.6 % of SOSCF)
Grid generation             ....       0.181 sec  (  0.1%)
Finished LeanSCF after 151.9 sec

Maximum memory used throughout the entire LEANSCF-calculation: 36.5 MB
------------------   -----------------
gCP correction             0.006818188
------------------   -----------------

-------------------------   --------------------
FINAL SINGLE POINT ENERGY      -767.040449361966
-------------------------   --------------------


------------------------------------------------------------------------------
                              ORCA PROPERTY CALCULATIONS
------------------------------------------------------------------------------

GBWName                                 ... sp_solv.gbw
Number of atoms                         ...     13
Number of basis functions               ...    284
Max core memory                         ...   1024 MB

Electric properties:
Dipole moment                           ... YES
Quadrupole moment                       ...  NO
Static polarizability (Dipole/Dipole)   ...  NO
Static polarizability (Dipole/Quad.)    ...  NO
Static polarizability (Quad./Quad.)     ...  NO
Static polarizability (Velocity)        ...  NO

Atomic electric properties:
Dipole moment                           ...  NO
Quadrupole moment                       ...  NO
Static polarizability                   ...  NO

Choice of electric origin               ... Center of mass
Position of electric origin             ...     0.008163    -0.001104    -0.000075

General magnetic properties:
Magnetizability                         ...  NO

EPR properties:
g-Tensor (aka g-matrix)                 ...  NO
Zero-Field splitting spin-orbit         ...  NO
Zero-field splitting spin-spin          ...  NO
Hyperfine couplings                     ...  NO (   0 nuclei)
Quadrupole couplings                    ...  NO (   0 nuclei)
Contact density                         ...  NO (   0 nuclei)

NMR properties:
Chemical shifts                         ...  NO (   0 nuclei)
Spin-rotation constants                 ...  NO (   0 nuclei)
Spin-spin couplings                     ...  NO (   0 nuclei,    0 pairs)

Choice of magnetic origin               ... GIAO
Position of magnetic origin             ...     0.000000     0.000000     0.000000

Properties with geometric perturbations:
SCF Hessian                             ...  NO
IR spectrum                             ...  NO
VCD spectrum                            ...  NO
X-ray spectroscopy properties:
SCF XES/XAS/RIXS spectra                ...  NO


-------------
DIPOLE MOMENT
-------------

Method             : SCF
Type of density    : Electron Density
Multiplicity       :   1
Irrep              :   0
Energy             :  -767.0472675499664774 Eh
Relativity type    : 
Basis              : AO
                                X                 Y                 Z
Electronic contribution:      8.599632417      -0.423395504       0.000584281
Nuclear contribution   :     -8.963851919       0.006663897      -0.000635394
                        -----------------------------------------
Total Dipole Moment    :     -0.364219502      -0.416731607      -0.000051113
                        -----------------------------------------
Magnitude (a.u.)       :      0.553462809
Magnitude (Debye)      :      1.406790660



--------------------
Rotational spectrum 
--------------------
 
Rotational constants in cm-1:             0.098504             0.050977             0.033592 
Rotational constants in MHz :          2953.075624          1528.244069          1007.073946 

Dipole components along the rotational axes: 
x,y,z [a.u.] :     0.364323    -0.416641    -0.000030 
x,y,z [Debye]:     0.926035    -1.059018    -0.000077 

 

Dipole moment calculation done in   0.0 sec 

Maximum memory used throughout the entire PROP-calculation: 23.0 MB

--------------------------------
SUGGESTED CITATIONS FOR THIS RUN
--------------------------------

Below you find a list of papers that are relevant to this ORCA run
We neither can nor want to force you to cite these papers, but we appreciate if you do
You receive ORCA, which is the product of decades of hard work by many enthusiastic individuals, for free
The only thing we kindly ask in return is that you cite our papers,
We deeply appreciate it, if you show your appreciation for ORCA by not just citing the generic ORCA reference.

Please note that relegating all ORCA citations to the supporting information does *not* help us.
SI sections are not indexed - citations you put there will not count into any citation statistics
But we need these citations in order to attract the funding resources that allow us to do what we are doing

Therefore, if you are a happy ORCA user, please consider citing a few of the papers listed below in the main body of your paper

In addition to the list printed below, the program has created the file sp_solv.bibtex that contains the list in bibtex format
You can import this file easily into all common literature databanks and citation aid programs


List of essential papers. We consider these as the minimum necessary citations

  1. Neese,F.
     Software update: the ORCA program system, version 5.0
     WIRES Comput. Molec. Sci., 2022 12(1)e1606
     doi.org/10.1002/wcms.1606

List of papers to cite with high priority. The work reported in these papers was absolutely
necessary for this run to complete.
Our perspective: the developers of density functionals and basis sets usually get cited in chemistry papers
Good! But without the algorithms to do something with them, the functionals or basis sets would not do anything.
Hence, in our opinion, the algorithm design and method developments papers are equally worthy of getting cited

  1. Neese,F.
     An improvement of the resolution of the identity approximation for the formation of the Coulomb matrix
     J. Comp. Chem., 2003 24(14)1740-1747
     doi.org/10.1002/jcc.10318
  2. Neese,F.; Wennmohs,F.; Hansen,A.; Becker,U.
     Efficient, approximate and parallel Hartree-Fock and hybrid DFT calculations. A 'chain-of-spheres' algorithm for the Hartree-Fock exchange
     Chem. Phys., 2009 356(1-3)98-109
     doi.org/10.1016/j.chemphys.2008.10.036
  3. Garcia-Rates,M.; Neese,F.
     Effect of the Solute Cavity on the Solvation Energy and its Derivatives within the Framework of the Gaussian Charge Scheme
     J. Comput. Chem., 2020 41 922-939
     doi.org/10.1002/jcc.26139
  4. Helmich-Paris,B.; de Souza,B.; Neese,F.; Izsák,R.
     An improved chain of spheres for exchange algorithm
     J. Chem. Phys., 2021 155 104109
     doi.org/doi: 10.1063/5.0058766.
  5. Neese,F.
     The SHARK Integral Generation and Digestion System
     J. Comp. Chem., 2022  1-16
     doi.org/10.1002/jcc.26942

List of suggested additional citations. These are papers that are important in the 'surrounding' of 
of this run, or papers that preceded the highly important papers. If you like your results we are grateful for a citation.

  1. Izsak,R.; Neese,F.
     An overlap fitted chain of spheres exchange method
     J. Chem. Phys., 2011 135 144105
     doi.org/10.1063/1.3646921
  2. Izsak,R.; Hansen,A.; Neese,F.
     The resolution of identity and chain of spheres approximations for the LPNO-CCSD singles Fock term
     Molec. Phys., 2012 110 2413-2417
     doi.org/10.1080/00268976.2012.687466
  3. Neese,F.
     The ORCA program system
     WIRES Comput. Molec. Sci., 2012 2(1)73-78
     doi.org/10.1002/wcms.81
  4. Izsak,R.; Neese,F.; Klopper,W.
     Robust fitting techniques in the chain of spheres approximation to the Fock exchange: The role of the complementary space
     J. Chem. Phys., 2013 139 
     doi.org/10.1063/1.4819264
  5. Neese,F.
     Software update: the ORCA program system, version 4.0
     WIRES Comput. Molec. Sci., 2018 8(1)1-6
     doi.org/10.1002/wcms.1327
  6. Neese,F.; Wennmohs,F.; Becker,U.; Riplinger,C.
     The ORCA quantum chemistry program package
     J. Chem. Phys., 2020 152 Art. No. L224108
     doi.org/10.1063/5.0004608

List of optional additional citations

  1. Neese,F.
     Approximate second-order SCF convergence for spin unrestricted wavefunctions
     Chem. Phys. Lett., 2000 325(1-3)93-98
     doi.org/10.1016/s0009-2614(00)00662-x

Timings for individual modules:

Sum of individual times          ...      154.619 sec (=   2.577 min)
Startup calculation              ...        2.164 sec (=   0.036 min)   1.4 %
SCF iterations                   ...      152.330 sec (=   2.539 min)  98.5 %
Property calculations            ...        0.125 sec (=   0.002 min)   0.1 %
                             ****ORCA TERMINATED NORMALLY****
TOTAL RUN TIME: 0 days 0 hours 2 minutes 35 seconds 552 msec
